Title: **.subckt gm_id_nmos
Date: Tue Jun  1 20:11:59  2021
Plotname: DC transfer characteristic
Flags: real
No. Variables: 7
No. Points: 181
Variables:
	0	v(v-sweep)	voltage
	1	@m.xm1.msky130_fd_pr__nfet_01v8[cgb]	capacitance
	2	@m.xm1.msky130_fd_pr__nfet_01v8[cgd]	capacitance
	3	@m.xm1.msky130_fd_pr__nfet_01v8[cgs]	capacitance
	4	@m.xm1.msky130_fd_pr__nfet_01v8[gds]	admittance
	5	@m.xm1.msky130_fd_pr__nfet_01v8[gm]	admittance
	6	i(@m.xm1.msky130_fd_pr__nfet_01v8[id])	current
Values:
 0	0.000000000000000e+00
	-1.049179199197191e-15
	1.005342136801270e-19
	-3.467337094982030e-17
	2.189610941559236e-14
	2.647527226110249e-12
	1.022760898016355e-13

 1	1.000000000000000e-02
	-1.041267716915927e-15
	1.081374283235667e-19
	-3.713138312771321e-17
	2.835993311588538e-14
	3.429598837625274e-12
	1.324932679323826e-13

 2	2.000000000000000e-02
	-1.033459038334247e-15
	1.164420730438708e-19
	-3.981285579733803e-17
	3.673140871234316e-14
	4.442620831465722e-12
	1.716361894000480e-13

 3	3.000000000000000e-02
	-1.025743507367504e-15
	1.255200009991075e-19
	-4.274027099458373e-17
	4.757330184281394e-14
	5.754760467073625e-12
	2.223405271866121e-13

 4	4.000000000000000e-02
	-1.018111223973191e-15
	1.354499618360032e-19
	-4.593823212609811e-17
	6.161428532273637e-14
	7.454289245903209e-12
	2.880198269097113e-13

 5	5.000000000000000e-02
	-1.010552004858211e-15
	1.463181156970442e-19
	-4.943361809208649e-17
	7.979779714069098e-14
	9.655504590258859e-12
	3.730948869896321e-13

 6	6.000000000000000e-02
	-1.003055345140036e-15
	1.582185551715806e-19
	-5.325573923284833e-17
	1.033452617841972e-13
	1.250639216600187e-11
	4.832906863408993e-13

 7	7.000000000000001e-02
	-9.956103815250452e-16
	1.712538277306687e-19
	-5.743646551963594e-17
	1.338378856734309e-13
	1.619853838817558e-11
	6.260207070482155e-13

 8	8.000000000000000e-02
	-9.882058593182635e-16
	1.855354459916553e-19
	-6.201006692317325e-17
	1.733224564792731e-13
	2.097994448076163e-11
	8.108842642676876e-13

 9	9.000000000000000e-02
	-9.808300987752341e-16
	2.011843838317571e-19
	-6.701445670847774e-17
	2.244481920397575e-13
	2.717162601628765e-11
	1.050310103539307e-12

 10	9.999999999999999e-02
	-9.734709665817711e-16
	2.183315377646639e-19
	-7.249017186602492e-17
	2.906436993414802e-13
	3.518903490615382e-11
	1.360389076479776e-12

 11	1.100000000000000e-01
	-9.661158546513988e-16
	2.371181331175589e-19
	-7.848088493160387e-17
	3.763457248317925e-13
	4.556977058658099e-11
	1.761951144676033e-12

 12	1.200000000000000e-01
	-9.587516640215900e-16
	2.576960625629365e-19
	-8.503349967163220e-17
	4.872947986962619e-13
	5.900937960482102e-11
	2.281958221632066e-12

 13	1.300000000000000e-01
	-9.513647965978366e-16
	2.802281328441409e-19
	-9.219821809700355e-17
	6.309172088476400e-13
	7.640759431327357e-11
	2.955304995883298e-12

 14	1.400000000000000e-01
	-9.439411563336338e-16
	3.048881949145576e-19
	-1.000285713458807e-16
	8.168183396272811e-13
	9.892802975525869e-11
	3.827146589576237e-12

 15	1.500000000000000e-01
	-9.364661615582327e-16
	3.318611300641096e-19
	-1.085814062169866e-16
	1.057419588902061e-12
	1.280752193220298e-10
	4.955906228023996e-12

 16	1.600000000000000e-01
	-9.289247702552504e-16
	3.613426622727285e-19
	-1.179168184792102e-16
	1.368780276479773e-12
	1.657939716676929e-10
	6.417160186035937e-12

 17	1.700000000000000e-01
	-9.213015201407398e-16
	3.935389652029380e-19
	-1.280980235894648e-16
	1.771657727710874e-12
	2.145974382733961e-10
	8.308653851138007e-12

 18	1.800000000000000e-01
	-9.135805853745334e-16
	4.286660311448040e-19
	-1.391911551853748e-16
	2.292873752110728e-12
	2.777320737362204e-10
	1.075677524104995e-11

 19	1.900000000000000e-01
	-9.057458516491091e-16
	4.669487691010058e-19
	-1.512649817552919e-16
	2.967074906306094e-12
	3.593899498375687e-10
	1.392490507538811e-11

 20	2.000000000000000e-01
	-8.977810112205826e-16
	5.086198003024095e-19
	-1.643905323003780e-16
	3.838998315968299e-12
	4.649817740207139e-10
	1.802418099223160e-11

 21	2.100000000000000e-01
	-8.896696791640827e-16
	5.539179220297782e-19
	-1.786406226659623e-16
	4.966385773888670e-12
	6.014876157080112e-10
	2.332736456251925e-11

 22	2.200000000000001e-01
	-8.813955317391737e-16
	6.030862149170396e-19
	-1.940892755983533e-16
	6.423727981655883e-12
	7.779069457627767e-10
	3.018669192082898e-11

 23	2.300000000000001e-01
	-8.729424672345459e-16
	6.563697751178043e-19
	-2.108110295317719e-16
	8.307070175970310e-12
	1.005835369436057e-09
	3.905683267698247e-11

 24	2.400000000000001e-01
	-8.642947890215373e-16
	7.140130609752506e-19
	-2.288801336667010e-16
	1.074017241618636e-11
	1.300202648502407e-09
	5.052439033184840e-11

 25	2.500000000000001e-01
	-8.554374097944821e-16
	7.762568541133858e-19
	-2.483696300482969e-16
	1.388239542118147e-11
	1.680215577607521e-09
	6.534576661196047e-11

 26	2.600000000000001e-01
	-8.463560751145403e-16
	8.433348472573533e-19
	-2.693503271152100e-16
	1.793877948033018e-11
	2.170560366828191e-09
	8.449570130514239e-11

 27	2.700000000000001e-01
	-8.370376034415219e-16
	9.154698851492969e-19
	-2.918896734211281e-16
	2.317290361783713e-11
	2.802932797407417e-09
	1.092294114728328e-10

 28	2.800000000000001e-01
	-8.274701388514535e-16
	9.928699005338931e-19
	-3.160505448946791e-16
	2.992325942942673e-11
	3.617981016471089e-09
	1.411620168992256e-10

 29	2.900000000000001e-01
	-8.176434116468378e-16
	1.075723603691644e-18
	-3.418899638935862e-16
	3.862405390327679e-11
	4.667765906855636e-09
	1.823698845423706e-10

 30	3.000000000000001e-01
	-8.075490011161541e-16
	1.164196000808032e-18
	-3.694577732458108e-16
	4.983157356109056e-11
	6.018868015007844e-09
	2.355196908237514e-10

 31	3.100000000000001e-01
	-7.971805938443576e-16
	1.258423832781795e-18
	-3.987952932108423e-16
	6.425750409340083e-11
	7.756298541437286e-09
	3.040324290999710e-10

 32	3.200000000000001e-01
	-7.865342302743434e-16
	1.358511041008804e-18
	-4.299339935727866e-16
	8.281091091234914e-11
	9.988405359252451e-09
	3.922913277136144e-10

 33	3.300000000000001e-01
	-7.756085317279458e-16
	1.464524379279257e-18
	-4.628942166120459e-16
	1.066509518191865e-10
	1.285300383452642e-08
	5.059047431079885e-10

 34	3.400000000000001e-01
	-7.644048998672687e-16
	1.576489300237281e-18
	-4.976839892141100e-16
	1.372528174432552e-10
	1.652500672148421e-08
	6.520376078502379e-10

 35	3.500000000000001e-01
	-7.529276806579113e-16
	1.694386249972127e-18
	-5.342979636026397e-16
	1.764898809906615e-10
	2.122587791147861e-08
	8.398280035189507e-10

 36	3.600000000000002e-01
	-7.411842853176029e-16
	1.818147504461954e-18
	-5.727165259106121e-16
	2.267355871317404e-10
	2.723529173207641e-08
	1.080908955211415e-09

 37	3.700000000000002e-01
	-7.291852615130950e-16
	1.947654676191292e-18
	-6.129051098696487e-16
	2.909892198615172e-10
	3.490544356968638e-08
	1.390059675326241e-09

 38	3.800000000000002e-01
	-7.169443092019036e-16
	2.082737007987017e-18
	-6.548137492250066e-16
	3.730303593153688e-10
	4.467853038015728e-08
	1.786015297713061e-09

 39	3.900000000000002e-01
	-7.044782369794227e-16
	2.223170553951171e-18
	-6.983768970871470e-16
	4.776075673393869e-10
	5.710800425535613e-08
	2.292469740207148e-09

 40	4.000000000000002e-01
	-6.918068565398120e-16
	2.368678324645519e-18
	-7.435135334289175e-16
	6.106676352447495e-10
	7.288430432199896e-08
	2.939312857891964e-09

 41	4.100000000000002e-01
	-6.789528148240889e-16
	2.518931446096805e-18
	-7.901275735546609e-16
	7.796325985077759e-10
	9.286590143498086e-08
	3.764150720274534e-09

 42	4.200000000000002e-01
	-6.659413655258264e-16
	2.673551350784069e-18
	-8.381085809288545e-16
	9.937327018288211e-10
	1.181166610765723e-07
	4.814167002460991e-09

 43	4.300000000000002e-01
	-6.528000837552473e-16
	2.832112984888751e-18
	-8.873327776693617e-16
	1.264404633744058e-09
	1.499507628713511e-07
	6.148394637978497e-09

 44	4.400000000000002e-01
	-6.395585297195654e-16
	2.994148981315911e-18
	-9.376643357597615e-16
	1.605765710831120e-09
	1.899867345196305e-07
	7.840480779445375e-09

 45	4.500000000000002e-01
	-6.262478691537811e-16
	3.159154714059302e-18
	-9.889569221304551e-16
	2.035176346289765e-09
	2.402125865242183e-07
	9.982045735932988e-09

 46	4.600000000000002e-01
	-6.129004598308095e-16
	3.326594118133808e-18
	-1.041055461712344e-15
	2.573905110983483e-09
	3.030645805848146e-07
	1.268675905735576e-08

 47	4.700000000000003e-01
	-5.995494147056316e-16
	3.495906132200503e-18
	-1.093798074862058e-15
	3.247912879757150e-09
	3.815228013672958e-07
	1.609528440050107e-08

 48	4.800000000000003e-01
	-5.862281530386370e-16
	3.666511599604503e-18
	-1.147018139604315e-15
	4.088774571000348e-09
	4.792273306358309e-07
	2.038127972790118e-08

 49	4.900000000000003e-01
	-5.729699511572372e-16
	3.837820448958084e-18
	-1.200546425246728e-15
	5.134757984224073e-09
	6.006192326333023e-07
	2.575867973932617e-08

 50	5.000000000000002e-01
	-5.598075043401131e-16
	4.009238968344836e-18
	-1.254213242282489e-15
	6.432077689797956e-09
	7.511103803165482e-07
	3.249052932011081e-08

 51	5.100000000000002e-01
	-5.467725106622213e-16
	4.180176987951402e-18
	-1.307850554157807e-15
	8.036335469942762e-09
	9.372848320448064e-07
	4.089967171152977e-08

 52	5.200000000000002e-01
	-5.338952865664089e-16
	4.350054794229683e-18
	-1.361293999353405e-15
	1.001414432673669e-08
	1.167131303934717e-06
	5.138160823277793e-08

 53	5.300000000000002e-01
	-5.212044224984787e-16
	4.518309613890128e-18
	-1.414384777094775e-15
	1.244490712993032e-08
	1.450300542715575e-06
	6.441981554923495e-08

 54	5.400000000000003e-01
	-5.087264852445147e-16
	4.684401527069621e-18
	-1.466971356533626e-15
	1.542268086468939e-08
	1.798372579505504e-06
	8.060370306027065e-08

 55	5.500000000000003e-01
	-4.964857717413835e-16
	4.847818694558484e-18
	-1.518910977022195e-15
	1.905800280003642e-08
	2.225107028297054e-06
	1.006491859104650e-07

 56	5.600000000000003e-01
	-4.845041171961177e-16
	5.008081812477759e-18
	-1.570070915672403e-15
	2.347948970526409e-08
	2.746635905107191e-06
	1.254215130692748e-07

 57	5.700000000000003e-01
	-4.728007584465226e-16
	5.164747737673973e-18
	-1.620329507280079e-15
	2.883495545594693e-08
	3.381545356587518e-06
	1.559595173342071e-07

 58	5.800000000000003e-01
	-4.613922517126399e-16
	5.317412256799206e-18
	-1.669576910448347e-15
	3.529174227647559e-08
	4.150784006542049e-06
	1.934998690598292e-07

 59	5.900000000000003e-01
	-4.502924423001847e-16
	5.465712000174547e-18
	-1.717715621959788e-15
	4.303594702745027e-08
	5.077335921029878e-06
	2.394992845765825e-07

 60	6.000000000000003e-01
	-4.395124824775994e-16
	5.609325526934385e-18
	-1.764660748793889e-15
	5.227026630863841e-08
	6.185609575630877e-06
	2.956520749793797e-07

 61	6.100000000000003e-01
	-4.290608926927177e-16
	5.747973629733000e-18
	-1.810340053417456e-15
	6.321029494403270e-08
	7.500522716090266e-06
	3.639000647622279e-07

 62	6.200000000000003e-01
	-4.189436605377623e-16
	5.881418924893731e-18
	-1.854693792938297e-15
	7.607928899160726e-08
	9.046305043749774e-06
	4.464319094501968e-07

 63	6.300000000000003e-01
	-4.091643714092051e-16
	6.009464807017360e-18
	-1.897674376339963e-15
	9.110162504631230e-08
	1.084509027254974e-05
	5.456693060795333e-07

 64	6.400000000000003e-01
	-3.997243646227148e-16
	6.131953855750743e-18
	-1.939245866325256e-15
	1.084954130406883e-07
	1.291541662920067e-05
	6.642385499202699e-07

 65	6.500000000000004e-01
	-3.906229088025051e-16
	6.248765786885199e-18
	-1.979383353370086e-15
	1.284649015018412e-07
	1.527078910434704e-05
	8.049272683592471e-07

 66	6.600000000000004e-01
	-3.818573906298864e-16
	6.359815040632498e-18
	-2.018072229563282e-15
	1.511934076355476e-07
	1.791846813846331e-05
	9.706277748688032e-07

 67	6.700000000000004e-01
	-3.734235114647950e-16
	6.465048097360888e-18
	-2.055307388850645e-15
	1.768374824158404e-07
	2.085863306283228e-05
	1.164270074531793e-06

 68	6.800000000000004e-01
	-3.653154869025087e-16
	6.564440605884095e-18
	-2.091092378600518e-15
	2.055228821855609e-07
	2.408402612548195e-05
	1.388748842679257e-06

 69	6.900000000000004e-01
	-3.575262449535602e-16
	6.657994402221651e-18
	-2.125438525154750e-15
	2.373426895125702e-07
	2.758012220801693e-05
	1.646849463424983e-06

 70	7.000000000000004e-01
	-3.500476191999072e-16
	6.745734488208658e-18
	-2.158364053406080e-15
	2.723576533011790e-07
	3.132580238718080e-05
	1.941178330812085e-06

 71	7.100000000000004e-01
	-3.428705339517615e-16
	6.827706029996114e-18
	-2.189893217617130e-15
	3.105985541887362e-07
	3.529444911149455e-05
	2.274102084440266e-06

 72	7.200000000000004e-01
	-3.359851790804511e-16
	6.903971426844940e-18
	-2.220055457811296e-15
	3.520701917020888e-07
	3.945533725337138e-05
	2.647699394268222e-06

 73	7.300000000000004e-01
	-3.293811728125862e-16
	6.974607491091206e-18
	-2.248884593239673e-15
	3.967564630039781e-07
	4.377517427372627e-05
	3.063727527018002e-06

 74	7.400000000000004e-01
	-3.230477113250887e-16
	7.039702771072132e-18
	-2.276418061753433e-15
	4.446259668905468e-07
	4.821964451918275e-05
	3.523604449968930e-06

 75	7.500000000000004e-01
	-3.169737044701050e-16
	7.099355040391675e-18
	-2.302696211453438e-15
	4.956376099982778e-07
	5.275483317039158e-05
	4.028405867547176e-06

 76	7.600000000000005e-01
	-3.111478973789536e-16
	7.153668969333392e-18
	-2.327761648792713e-15
	5.497457918096864e-07
	5.734843786714674e-05
	4.578875496942263e-06

 77	7.700000000000005e-01
	-3.055589780443432e-16
	7.202753987589151e-18
	-2.351658645395878e-15
	6.069048734997575e-07
	6.197071322418849e-05
	5.175446154211546e-06

 78	7.800000000000005e-01
	-3.001956712625624e-16
	7.246722341800021e-18
	-2.374432604239635e-15
	6.670727676781618e-07
	6.659512898558475e-05
	5.818268855759689e-06

 79	7.900000000000005e-01
	-2.950468195365443e-16
	7.285687346690187e-18
	-2.396129584503979e-15
	7.302136028189126e-07
	7.119875203809478e-05
	6.507247101301561e-06

 80	8.000000000000005e-01
	-2.901014517027577e-16
	7.319761824769538e-18
	-2.416795883339097e-15
	7.962995067106943e-07
	7.576238367786741e-05
	7.242073719877287e-06

 81	8.100000000000005e-01
	-2.853488401565368e-16
	7.349056726615867e-18
	-2.436477671975029e-15
	8.653116139814940e-07
	8.027049605569892e-05
	8.022268044087855e-06

 82	8.200000000000005e-01
	-2.807785476188282e-16
	7.373679921538258e-18
	-2.455220683003968e-15
	9.372404354840312e-07
	8.471101660904285e-05
	8.847211647153284e-06

 83	8.300000000000005e-01
	-2.763804644196771e-16
	7.393735146874423e-18
	-2.473069945259219e-15
	1.012085737162638e-06
	8.907500824880128e-05
	9.716181364428531e-06

 84	8.400000000000005e-01
	-2.721448372766471e-16
	7.409321103191670e-18
	-2.490069562472150e-15
	1.089856069338780e-06
	9.335628804104146e-05
	1.062837877610010e-05

 85	8.500000000000005e-01
	-2.680622905261421e-16
	7.420530682150867e-18
	-2.506262531780565e-15
	1.170568070388795e-06
	9.755101989268239e-05
	1.158295572020267e-05

 86	8.600000000000005e-01
	-2.641238407277768e-16
	7.427450313665509e-18
	-2.521690598162954e-15
	1.254245646795926e-06
	1.016573087515737e-04
	1.257903572033222e-05

 87	8.700000000000006e-01
	-2.603209055113267e-16
	7.430159419166675e-18
	-2.536394140959864e-15
	1.340919108457601e-06
	1.056748160864582e-04
	1.361573144826649e-05

 88	8.800000000000006e-01
	-2.566453074765965e-16
	7.428729958195237e-18
	-2.550412088794595e-15
	1.430624316504518e-06
	1.096044095512467e-04
	1.469215850412432e-05

 89	8.900000000000006e-01
	-2.530892738920871e-16
	7.423226056125269e-18
	-2.563781859403597e-15
	1.523401882193017e-06
	1.134478540707545e-04
	1.580744589633168e-05

 90	9.000000000000006e-01
	-2.496454328714857e-16
	7.413703701523538e-18
	-2.576539321116407e-15
	1.619296440259096e-06
	1.172075471876972e-04
	1.696074365298508e-05

 91	9.100000000000006e-01
	-2.463068066398797e-16
	7.400210502425591e-18
	-2.588718772973560e-15
	1.718356008483175e-06
	1.208862983080036e-04
	1.815122800763913e-05

 92	9.200000000000006e-01
	-2.430668006337606e-16
	7.382785528768987e-18
	-2.600352948512526e-15
	1.820631485899183e-06
	1.244871516725764e-04
	1.937810539830368e-05

 93	9.300000000000006e-01
	-2.399191998107609e-16
	7.361459008671913e-18
	-2.611472993559120e-15
	1.926175991982801e-06
	1.280132349575668e-04
	2.064061081468663e-05

 94	9.400000000000006e-01
	-2.368581451551342e-16
	7.336252429421890e-18
	-2.622108534891453e-15
	2.035044779972304e-06
	1.314676648122428e-04
	2.193801298133718e-05

 95	9.500000000000006e-01
	-2.338781276150523e-16
	7.307178288558095e-18
	-2.632287677322885e-15
	2.147294729222300e-06
	1.348534564847421e-04
	2.326961052469652e-05

 96	9.600000000000006e-01
	-2.309739719182068e-16
	7.274240050049015e-18
	-2.642037049049216e-15
	2.262984149114482e-06
	1.381734692474126e-04
	2.463473148467749e-05

 97	9.700000000000006e-01
	-2.281408217766832e-16
	7.237432074197392e-18
	-2.651381844534682e-15
	2.382172588691568e-06
	1.414303686906310e-04
	2.603273155173902e-05

 98	9.800000000000006e-01
	-2.253741248215332e-16
	7.196739553540082e-18
	-2.660345871868921e-15
	2.504920693180731e-06
	1.446266044837554e-04
	2.746299200731371e-05

 99	9.900000000000007e-01
	-2.226696174592342e-16
	7.152138449923180e-18
	-2.668951603422881e-15
	2.631290099782566e-06
	1.477644002345554e-04
	2.892491750498997e-05

 100	1.000000000000001e+00
	-2.200233098091017e-16
	7.103595428458937e-18
	-2.677220228797007e-15
	2.761343366006276e-06
	1.508457525732217e-04
	3.041793379864405e-05

 101	1.010000000000001e+00
	-2.174314708515961e-16
	7.051067784540545e-18
	-2.685171709203823e-15
	2.895143924769505e-06
	1.538724370585845e-04
	3.194148549737119e-05

 102	1.020000000000001e+00
	-2.148906138920032e-16
	6.994503360503928e-18
	-2.692824832560006e-15
	3.032756061384391e-06
	1.568460189354183e-04
	3.349503390523341e-05

 103	1.030000000000001e+00
	-2.123974824218926e-16
	6.933840448887994e-18
	-2.700197268681129e-15
	3.174244908382147e-06
	1.597678671542500e-04
	3.507805498608484e-05

 104	1.040000000000001e+00
	-2.099490364417131e-16
	6.869007679554672e-18
	-2.707305624076504e-15
	3.319676454868302e-06
	1.626391703962944e-04
	3.669003747955876e-05

 105	1.050000000000001e+00
	-2.075424392916394e-16
	6.799923888195461e-18
	-2.714165495932702e-15
	3.469117567740323e-06
	1.654609541271605e-04
	3.833048118315747e-05

 106	1.060000000000001e+00
	-2.051750450239277e-16
	6.726497963972302e-18
	-2.720791524954239e-15
	3.622636022645451e-06
	1.682340979373759e-04
	3.999889540685140e-05

 107	1.070000000000001e+00
	-2.028443863384405e-16
	6.648628674221962e-18
	-2.727197446798662e-15
	3.780300543010568e-06
	1.709593526201790e-04
	4.169479760015419e-05

 108	1.080000000000001e+00
	-2.005481630932546e-16
	6.566204464298067e-18
	-2.733396141902856e-15
	3.942180845851939e-06
	1.736373565927112e-04
	4.341771214696275e-05

 109	1.090000000000001e+00
	-1.982842313942400e-16
	6.479103230736504e-18
	-2.739399683548267e-15
	4.108347693377623e-06
	1.762686513908707e-04
	4.516716932015161e-05

 110	1.100000000000001e+00
	-1.960505932609344e-16
	6.387192066010915e-18
	-2.745219384055926e-15
	4.278872949641914e-06
	1.788536960656198e-04
	4.694270438572752e-05

 111	1.110000000000001e+00
	-1.938453868607066e-16
	6.290326973198579e-18
	-2.750865839038883e-15
	4.453829641706933e-06
	1.813928803839476e-04
	4.874385684501615e-05

 112	1.120000000000001e+00
	-1.916668772989915e-16
	6.188352548905246e-18
	-2.756348969670191e-15
	4.633292024922304e-06
	1.838865367949564e-04
	5.057016980269235e-05

 113	1.130000000000001e+00
	-1.895134479501122e-16
	6.081101632802934e-18
	-2.761678062950101e-15
	4.817335652054771e-06
	1.863349511640840e-04
	5.242118944828489e-05

 114	1.140000000000001e+00
	-1.873835923106533e-16
	5.968394922119681e-18
	-2.766861809977201e-15
	5.006037446095351e-06
	1.887383723092534e-04
	5.429646463899014e-05

 115	1.150000000000001e+00
	-1.852759063555826e-16
	5.850040549386474e-18
	-2.771908342245189e-15
	5.199475776643854e-06
	1.910970203941582e-04
	5.619554657207070e-05

 116	1.160000000000001e+00
	-1.831890813759950e-16
	5.725833621694590e-18
	-2.776825266000800e-15
	5.397730539827944e-06
	1.934110942480300e-04
	5.811798853575238e-05

 117	1.170000000000001e+00
	-1.811218972765916e-16
	5.595555719650268e-18
	-2.781619694709224e-15
	5.600883241756415e-06
	1.956807776897272e-04
	6.006334572826724e-05

 118	1.180000000000001e+00
	-1.790732163105549e-16
	5.458974354132588e-18
	-2.786298279681653e-15
	5.809017085539437e-06
	1.979062449381789e-04
	6.203117513549252e-05

 119	1.190000000000001e+00
	-1.770419772294162e-16
	5.315842378864753e-18
	-2.790867238926007e-15
	6.022217061934539e-06
	2.000876651922403e-04
	6.402103545846979e-05

 120	1.200000000000001e+00
	-1.750271898256366e-16
	5.165897356703716e-18
	-2.795332384286237e-15
	6.240570043695290e-06
	2.022252064616719e-04
	6.603248708290340e-05

 121	1.210000000000001e+00
	-1.730279298460080e-16
	5.008860877433520e-18
	-2.799699146938760e-15
	6.464164883716611e-06
	2.043190387279873e-04
	6.806509208355386e-05

 122	1.220000000000001e+00
	-1.710433342544770e-16
	4.844437824720852e-18
	-2.803972601316269e-15
	6.693092517080997e-06
	2.063693365097958e-04
	7.011841425719521e-05

 123	1.230000000000001e+00
	-1.690725968236690e-16
	4.672315589751687e-18
	-2.808157487529942e-15
	6.927446067121718e-06
	2.083762809024701e-04
	7.219201917854120e-05

 124	1.240000000000001e+00
	-1.671149640351047e-16
	4.492163228922884e-18
	-2.812258232360963e-15
	7.167320955625954e-06
	2.103400611567493e-04
	7.428547427420548e-05

 125	1.250000000000001e+00
	-1.651697312689103e-16
	4.303630562805550e-18
	-2.816278968891560e-15
	7.412815017310510e-06
	2.122608758555355e-04
	7.639834891039405e-05

 126	1.260000000000001e+00
	-1.632362392646907e-16
	4.106347213436545e-18
	-2.820223554844272e-15
	7.664028618707891e-06
	2.141389337427706e-04
	7.853021449057817e-05

 127	1.270000000000001e+00
	-1.613138708360911e-16
	3.899921576824801e-18
	-2.824095589696610e-15
	7.921064781609206e-06
	2.159744542530820e-04
	8.068064455992234e-05

 128	1.280000000000001e+00
	-1.594020478224779e-16
	3.683939727384816e-18
	-2.827898430635967e-15
	8.184029311216648e-06
	2.177676677858859e-04
	8.284921491369542e-05

 129	1.290000000000001e+00
	-1.575002282620557e-16
	3.457964250830832e-18
	-2.831635207417422e-15
	8.453030929165599e-06
	2.195188157629317e-04
	8.503550370730948e-05

 130	1.300000000000001e+00
	-1.556079037716349e-16
	3.221533001882324e-18
	-2.835308836184452e-15
	8.728181411584063e-06
	2.212281505038787e-04
	8.723909156599687e-05

 131	1.310000000000001e+00
	-1.537245971191194e-16
	2.974157782948058e-18
	-2.838922032309936e-15
	9.009595732364624e-06
	2.228959349504382e-04
	8.945956169246076e-05

 132	1.320000000000001e+00
	-1.518498599756312e-16
	2.715322939768603e-18
	-2.842477322312099e-15
	9.297392211833308e-06
	2.245224422658981e-04
	9.169649997112746e-05

 133	1.330000000000001e+00
	-1.499832708350396e-16
	2.444483869814269e-18
	-2.845977054897188e-15
	9.591692671006721e-06
	2.261079553334549e-04
	9.394949506786658e-05

 134	1.340000000000001e+00
	-1.481244330894161e-16
	2.161065439054216e-18
	-2.849423411177976e-15
	9.892622591639286e-06
	2.276527661737200e-04
	9.621813852427742e-05

 135	1.350000000000001e+00
	-1.462729732497355e-16
	1.864460302537138e-18
	-2.852818414114334e-15
	1.020031128227104e-05
	2.291571752990155e-04
	9.850202484582128e-05

 136	1.360000000000001e+00
	-1.444285393018594e-16
	1.554027124055343e-18
	-2.856163937219429e-15
	1.051489205049645e-05
	2.306214910196012e-04
	1.008007515832476e-04

 137	1.370000000000001e+00
	-1.425907991885257e-16
	1.229088690011712e-18
	-2.859461712572459e-15
	1.083650238168400e-05
	2.320460287147807e-04
	1.031139194068952e-04

 138	1.380000000000001e+00
	-1.407594394087752e-16
	8.889299124662775e-19
	-2.862713338176118e-15
	1.116528412438740e-05
	2.334311100798860e-04
	1.054411321735786e-04

 139	1.390000000000001e+00
	-1.389341637268161e-16
	5.327957162213421e-19
	-2.865920284694720e-15
	1.150138368269994e-05
	2.347770623584201e-04
	1.077819969858655e-04

 140	1.400000000000001e+00
	-1.371146919829943e-16
	1.598888047096777e-19
	-2.869083901606193e-15
	1.184495221581224e-05
	2.360842175671143e-04
	1.101361242436337e-04

 141	1.410000000000001e+00
	-1.353007590000596e-16
	-2.306327006130810e-19
	-2.872205422799132e-15
	1.219614584504707e-05
	2.373529117203347e-04
	1.125031276878735e-04

 142	1.420000000000001e+00
	-1.334921135784661e-16
	-6.396577526956070e-19
	-2.875285971643693e-15
	1.255512586865343e-05
	2.385834840591130e-04
	1.148826244367554e-04

 143	1.430000000000001e+00
	-1.316885175749827e-16
	-1.068125008439899e-18
	-2.878326565563142e-15
	1.292205898465358e-05
	2.397762762890629e-04
	1.172742350140285e-04

 144	1.440000000000001e+00
	-1.298897450593222e-16
	-1.517025600597887e-18
	-2.881328120130828e-15
	1.329711752204806e-05
	2.409316318305761e-04
	1.196775833698629e-04

 145	1.450000000000001e+00
	-1.280955815440002e-16
	-1.987406057100437e-18
	-2.884291452715560e-15
	1.368047968069180e-05
	2.420498950839312e-04
	1.220922968942643e-04

 146	1.460000000000001e+00
	-1.263058232830180e-16
	-2.480371372684953e-18
	-2.887217285696573e-15
	1.407232978016705e-05
	2.431314107113083e-04
	1.245180064232269e-04

 147	1.470000000000001e+00
	-1.245202766354091e-16
	-2.997088237378786e-18
	-2.890106249267743e-15
	1.447285851798612e-05
	2.441765229371412e-04
	1.269543462377982e-04

 148	1.480000000000001e+00
	-1.227387574900327e-16
	-3.538788425983463e-18
	-2.892958883849142e-15
	1.488226323746665e-05
	2.451855748677746e-04
	1.294009540562438e-04

 149	1.490000000000001e+00
	-1.209610907483723e-16
	-4.106772352169607e-18
	-2.895775642122824e-15
	1.530074820563083e-05
	2.461589078309955e-04
	1.318574710195137e-04

 150	1.500000000000001e+00
	-1.191871098624404e-16
	-4.702412790117817e-18
	-2.898556890708383e-15
	1.572852490148442e-05
	2.470968607356611e-04
	1.343235416701988e-04

 151	1.510000000000001e+00
	-1.174166564251719e-16
	-5.327158765809982e-18
	-2.901302911492946e-15
	1.616581231504130e-05
	2.479997694513879e-04
	1.367988139251920e-04

 152	1.520000000000001e+00
	-1.156495798110255e-16
	-5.982539619052870e-18
	-2.904013902629231e-15
	1.661283725745994e-05
	2.488679662080181e-04
	1.392829390422451e-04

 153	1.530000000000001e+00
	-1.138857368647366e-16
	-6.670169236099365e-18
	-2.906689979214677e-15
	1.706983468266277e-05
	2.497017790143940e-04
	1.417755715806175e-04

 154	1.540000000000001e+00
	-1.121249916364721e-16
	-7.391750451267110e-18
	-2.909331173664063e-15
	1.753704802081013e-05
	2.505015310958292e-04
	1.442763693560101e-04

 155	1.550000000000001e+00
	-1.103672151618147e-16
	-8.149079614237212e-18
	-2.911937435787667e-15
	1.801472952399831e-05
	2.512675403495292e-04
	1.467849933899637e-04

 156	1.560000000000001e+00
	-1.086122852852505e-16
	-8.944051317697329e-18
	-2.914508632586908e-15
	1.850314062454753e-05
	2.520001188171365e-04
	1.493011078539028e-04

 157	1.570000000000001e+00
	-1.068600865260237e-16
	-9.778663277644367e-18
	-2.917044547779373e-15
	1.900255230623723e-05
	2.526995721734905e-04
	1.518243800079839e-04

 158	1.580000000000001e+00
	-1.051105099853620e-16
	-1.065502135595547e-17
	-2.919544881065527e-15
	1.951324548883631e-05
	2.533661992306586e-04
	1.543544801349139e-04

 159	1.590000000000001e+00
	-1.033634532942468e-16
	-1.157534471172014e-17
	-2.922009247149880e-15
	2.003551142625889e-05
	2.540002914562492e-04
	1.568910814688782e-04

 160	1.600000000000001e+00
	-1.016188206010151e-16
	-1.254197106427628e-17
	-2.924437174530181e-15
	2.056965211865822e-05
	2.546021325050154e-04
	1.594338601197265e-04

 161	1.610000000000001e+00
	-9.987652259815421e-17
	-1.355736204685918e-17
	-2.926828104069368e-15
	2.111598073874253e-05
	2.551719977627419e-04
	1.619824949925300e-04

 162	1.620000000000001e+00
	-9.813647658772092e-17
	-1.462410862522668e-17
	-2.929181387366368e-15
	2.167482207256833e-05
	2.557101539014351e-04
	1.645366677026445e-04

 163	1.630000000000001e+00
	-9.639860658485864e-17
	-1.574493655051991e-17
	-2.931496284943574e-15
	2.224651297502367e-05
	2.562168584448363e-04
	1.670960624863730e-04

 164	1.640000000000001e+00
	-9.466284345883294e-17
	-1.692271180992870e-17
	-2.933771964271030e-15
	2.283140284016915e-05
	2.566923593433299e-04
	1.696603661073355e-04

 165	1.650000000000001e+00
	-9.292912511101075e-17
	-1.816044603242117e-17
	-2.936007497649679e-15
	2.342985408654596e-05
	2.571368945573398e-04
	1.722292677586291e-04

 166	1.660000000000001e+00
	-9.119739668904671e-17
	-1.946130179985047e-17
	-2.938201859979133e-15
	2.404224265749454e-05
	2.575506916483711e-04
	1.748024589608678e-04

 167	1.670000000000001e+00
	-8.946761083648669e-17
	-2.082859780614239e-17
	-2.940353926438467e-15
	2.466895853644520e-05
	2.579339673768991e-04
	1.773796334561612e-04

 168	1.680000000000001e+00
	-8.773972797668081e-17
	-2.226581379900806e-17
	-2.942462470112566e-15
	2.531040627705389e-05
	2.582869273063823e-04
	1.799604870981117e-04

 169	1.690000000000001e+00
	-8.601371662977451e-17
	-2.377659522971575e-17
	-2.944526159600485e-15
	2.596700554794315e-05
	2.586097654127405e-04
	1.825447177378738e-04

 170	1.700000000000001e+00
	-8.428955376111063e-17
	-2.536475752693739e-17
	-2.946543556647080e-15
	2.663919169168835e-05
	2.589026636987326e-04
	1.851320251063404e-04

 171	1.710000000000001e+00
	-8.256722515906333e-17
	-2.703428990060025e-17
	-2.948513113844122e-15
	2.732741629754190e-05
	2.591657918127540e-04
	1.877221106924938e-04

 172	1.720000000000001e+00
	-8.084672583985122e-17
	-2.878935857111628e-17
	-2.950433172452609e-15
	2.803214778722325e-05
	2.593993066716710e-04
	1.903146776179627e-04

 173	1.730000000000001e+00
	-7.912806047629777e-17
	-3.063430930844720e-17
	-2.952301960403873e-15
	2.875387201291626e-05
	2.596033520874375e-04
	1.929094305078346e-04

 174	1.740000000000001e+00
	-7.741124384696460e-17
	-3.257366915432139e-17
	-2.954117590543191e-15
	2.949309286639535e-05
	2.597780583973529e-04
	1.955060753577485e-04

 175	1.750000000000001e+00
	-7.569630130132970e-17
	-3.461214718978334e-17
	-2.955878059186036e-15
	3.025033289795911e-05
	2.599235420979539e-04
	1.981043193973112e-04
