Title: **.subckt gm_id_nmos
Date: Tue Jun  1 20:08:21  2021
Plotname: DC transfer characteristic
Flags: real
No. Variables: 7
No. Points: 181
Variables:
	0	v(v-sweep)	voltage
	1	@m.xm1.msky130_fd_pr__nfet_01v8[cgb]	capacitance
	2	@m.xm1.msky130_fd_pr__nfet_01v8[cgd]	capacitance
	3	@m.xm1.msky130_fd_pr__nfet_01v8[cgs]	capacitance
	4	@m.xm1.msky130_fd_pr__nfet_01v8[gds]	admittance
	5	@m.xm1.msky130_fd_pr__nfet_01v8[gm]	admittance
	6	i(@m.xm1.msky130_fd_pr__nfet_01v8[id])	current
Values:
 0	0.000000000000000e+00
	-5.163526292823956e-16
	2.369765767701746e-20
	-5.070524459472119e-18
	7.707800483957246e-15
	2.834572575263908e-13
	9.337015001545679e-15

 1	1.000000000000000e-02
	-5.138904544287486e-16
	2.520597458004591e-20
	-5.410761614477290e-18
	1.039981116551126e-14
	3.839959442972729e-13
	1.264888765364240e-14

 2	2.000000000000000e-02
	-5.114553868287533e-16
	2.680763072873240e-20
	-5.778782590561715e-18
	1.403174187072742e-14
	5.201913889310818e-13
	1.713542601233618e-14

 3	3.000000000000000e-02
	-5.090461927947039e-16
	2.851007787620130e-20
	-6.177255349334070e-18
	1.893165257085905e-14
	7.046877762494689e-13
	2.321322591316446e-14

 4	4.000000000000000e-02
	-5.066615986564539e-16
	3.032150326387973e-20
	-6.609151603046393e-18
	2.554205800511623e-14
	9.546120282321334e-13
	3.144660715589683e-14

 5	5.000000000000000e-02
	-5.043002839721079e-16
	3.225086800456594e-20
	-7.077777609070783e-18
	3.445983809128062e-14
	1.293162493934881e-12
	4.259998348001414e-14

 6	6.000000000000000e-02
	-5.019608744397085e-16
	3.430794082065509e-20
	-7.586806920367365e-18
	4.649005543437790e-14
	1.751760344376045e-12
	5.770879109749927e-14

 7	7.000000000000001e-02
	-4.996419345060877e-16
	3.650332633019941e-20
	-8.140315140961469e-18
	6.271852128378250e-14
	2.372962789477935e-12
	7.817554827416986e-14

 8	8.000000000000000e-02
	-4.973419596679143e-16
	3.884848708043055e-20
	-8.742816740247673e-18
	8.460963430613014e-14
	3.214407584028405e-12
	1.058999436989113e-13

 9	9.000000000000000e-02
	-4.950593684587915e-16
	4.135575853538867e-20
	-9.399303984690006e-18
	1.141382833839877e-13
	4.354153431565105e-12
	1.434549978643614e-13

 10	9.999999999999999e-02
	-4.927924941152003e-16
	4.403835622941395e-20
	-1.011528804965423e-17
	1.539676582081865e-13
	5.897909530431480e-12
	1.943255986911615e-13

 11	1.100000000000000e-01
	-4.905395759132234e-16
	4.691037429848556e-20
	-1.089684237677610e-17
	2.076889209852730e-13
	7.988821368031840e-12
	2.632314708033396e-13

 12	1.200000000000000e-01
	-4.882987501677553e-16
	4.998677459228213e-20
	-1.175064834208311e-17
	2.801442236100234e-13
	1.082071476995948e-11
	3.565644246771967e-13

 13	1.300000000000000e-01
	-4.860680408866318e-16
	5.328336554524046e-20
	-1.268404329496916e-17
	3.778619963067979e-13
	1.465601743620880e-11
	4.829802588087116e-13

 14	1.400000000000000e-01
	-4.838453500744981e-16
	5.681676993684397e-20
	-1.370507101521594e-17
	5.096434423242886e-13
	1.985000537862956e-11
	6.541999145314548e-13

 15	1.500000000000000e-01
	-4.816284476860474e-16
	6.060438059047174e-20
	-1.482253461073023e-17
	6.873526282632970e-13
	2.688359926969141e-11
	8.860937015330584e-13

 16	1.600000000000000e-01
	-4.794149612365655e-16
	6.466430293603792e-20
	-1.604605183773565e-17
	9.269806386596603e-13
	3.640771430942871e-11
	1.200148361962379e-12

 17	1.700000000000000e-01
	-4.772023650906909e-16
	6.901528318417472e-20
	-1.738611276200120e-17
	1.250078541545865e-12
	4.930321589723767e-11
	1.625451761046743e-12

 18	1.800000000000000e-01
	-4.749879694693425e-16
	7.367662062001788e-20
	-1.885413958762478e-17
	1.685686492295930e-12
	6.676194448063612e-11
	2.201377222457411e-12

 19	1.900000000000000e-01
	-4.727689092414082e-16
	7.866806221697870e-20
	-2.046254835151567e-17
	2.272929991280318e-12
	9.039616954909013e-11
	2.981213177690228e-12

 20	2.000000000000000e-01
	-4.705421326025223e-16
	8.400967739407754e-20
	-2.222481200921927e-17
	3.064512840241786e-12
	1.223863785325180e-10
	4.037069505182506e-12

 21	2.100000000000000e-01
	-4.683043897896419e-16
	8.972171029984720e-20
	-2.415552421322090e-17
	4.131414671988654e-12
	1.656807182997540e-10
	5.466507223095301e-12

 22	2.200000000000001e-01
	-4.660522220385265e-16
	9.582440651496090e-20
	-2.627046280094062e-17
	5.569205627847114e-12
	2.242639714499599e-10
	7.401493097335036e-12

 23	2.300000000000001e-01
	-4.637819510626936e-16
	1.023378105476959e-19
	-2.858665165983853e-17
	7.506530505709965e-12
	3.035200430464633e-10
	1.002048855637512e-11

 24	2.400000000000001e-01
	-4.614896694176660e-16
	1.092815299851155e-19
	-3.112241921668396e-17
	1.011650092158809e-11
	4.107200477550237e-10
	1.356476070741856e-11

 25	2.500000000000001e-01
	-4.591712322134444e-16
	1.166744617041958e-19
	-3.389745130491131e-17
	1.363198169316281e-11
	5.556788610718459e-10
	1.836037548902920e-11

 26	2.600000000000001e-01
	-4.568222507504009e-16
	1.245344751992817e-19
	-3.693283559949610e-17
	1.836608629637226e-11
	7.516372536742433e-10
	2.484782960887159e-11

 27	2.700000000000001e-01
	-4.544380887775180e-16
	1.328780479156292e-19
	-4.025109417894145e-17
	2.473963119092132e-11
	1.016445513037667e-09
	3.362193875092771e-11

 28	2.800000000000001e-01
	-4.520138622036994e-16
	1.417198475788515e-19
	-4.387620009262167e-17
	3.331787266739263e-11
	1.374149091145542e-09
	4.548547624939779e-11

 29	2.900000000000001e-01
	-4.495444432292549e-16
	1.510722569608053e-19
	-4.783357309401678e-17
	4.485960424738457e-11
	1.857108936594725e-09
	6.152121539474565e-11

 30	3.000000000000001e-01
	-4.470244699963359e-16
	1.609448374474123e-19
	-5.215004898816013e-17
	6.038268015728850e-11
	2.508830761207508e-09
	8.318855427417942e-11

 31	3.100000000000001e-01
	-4.444483629787648e-16
	1.713437292479282e-19
	-5.685381635995186e-17
	8.125131649263088e-11
	3.387730902660847e-09
	1.124529006745969e-10

 32	3.200000000000001e-01
	-4.418103494283063e-16
	1.822709882411838e-19
	-6.197431386994754e-17
	1.092921867651486e-10
	4.572134351383525e-09
	1.519585974694100e-10

 33	3.300000000000001e-01
	-4.391044972539763e-16
	1.937238623635985e-19
	-6.754208088466227e-17
	1.469484689864198e-10
	6.166885792703068e-09
	2.052595353081749e-10

 34	3.400000000000001e-01
	-4.363247597157875e-16
	2.056940141788795e-19
	-7.358855403688277e-17
	1.974837297809013e-10
	8.312060008809521e-09
	2.771259174692044e-10

 35	3.500000000000001e-01
	-4.334650322457054e-16
	2.181667008503672e-19
	-8.014580248233701e-17
	2.652509733497673e-10
	1.119438601637592e-08
	3.739511258450922e-10

 36	3.600000000000002e-01
	-4.305192225466232e-16
	2.311199281237213e-19
	-8.724619523617429e-17
	3.560464727079465e-10
	1.506215094400091e-08
	5.042895193549554e-10

 37	3.700000000000002e-01
	-4.274813348452181e-16
	2.445236009955674e-19
	-9.492199514095782e-17
	4.775732651246372e-10
	2.024452350354009e-08
	6.795645083521575e-10

 38	3.800000000000002e-01
	-4.243455687697005e-16
	2.583387002636585e-19
	-1.032048758334351e-16
	6.400455328396977e-10
	2.717642749051635e-08
	9.149965898633496e-10

 39	3.900000000000002e-01
	-4.211064327769596e-16
	2.725165207751484e-19
	-1.121253606142817e-16
	8.569725402121161e-10
	3.643029119957238e-08
	1.230813313158894e-09

 40	4.000000000000002e-01
	-4.177588713622780e-16
	2.869980134316327e-19
	-1.217121854191598e-16
	1.146169279345954e-09
	4.875617794757964e-08
	1.653817325721354e-09

 41	4.100000000000002e-01
	-4.142984044573576e-16
	3.017132782685146e-19
	-1.319915921212643e-16
	1.531050217019577e-09
	6.513193287630485e-08
	2.219404410146197e-09

 42	4.200000000000002e-01
	-4.107212764825708e-16
	3.165812594990293e-19
	-1.429865630725808e-16
	2.042271977258017e-09
	8.682501394587400e-08
	2.974140043031928e-09

 43	4.300000000000002e-01
	-4.070246115083029e-16
	3.315096945438707e-19
	-1.547160129347535e-16
	2.719799471284248e-09
	1.154675470959302e-07
	3.979019210365351e-09

 44	4.400000000000002e-01
	-4.032065699573287e-16
	3.463953670184549e-19
	-1.671939591879785e-16
	3.615476403939626e-09
	1.531457810592770e-07
	5.313548021659735e-09

 45	4.500000000000002e-01
	-3.992665013218053e-16
	3.611247077928375e-19
	-1.804286978738753e-16
	4.796183109361646e-09
	2.025044377467206e-07
	7.080794314682599e-09

 46	4.600000000000002e-01
	-3.952050865642116e-16
	3.755747781610232e-19
	-1.944220156856443e-16
	6.347659486140905e-09
	2.668653981228831e-07
	9.413554450726465e-09

 47	4.700000000000003e-01
	-3.910244633174903e-16
	3.896146547647201e-19
	-2.091684729793778e-16
	8.379055015511828e-09
	3.503587189710498e-07
	1.248177098442252e-08

 48	4.800000000000003e-01
	-3.867283267888970e-16
	4.031072175323186e-19
	-2.246547941551041e-16
	1.102823778959468e-08
	4.580622236703926e-07
	1.650130727304365e-08

 49	4.900000000000003e-01
	-3.823219994836082e-16
	4.159113203081242e-19
	-2.408594017079155e-16
	1.446784684596929e-08
	5.961440713948979e-07
	2.174413826168860e-08

 50	5.000000000000002e-01
	-3.778124635508651e-16
	4.278843003256657e-19
	-2.577521277547516e-16
	1.891200494738290e-08
	7.720011802775514e-07
	2.854995260788719e-08

 51	5.100000000000002e-01
	-3.732083507331483e-16
	4.388847589039689e-19
	-2.752941318482138e-16
	2.462352295708842e-08
	9.943857250487338e-07
	3.733908579114751e-08

 52	5.200000000000002e-01
	-3.685198865383668e-16
	4.487755236841403e-19
	-2.934380464599575e-16
	3.192132685518650e-08
	1.273512796601922e-06
	4.862662885942770e-08

 53	5.300000000000002e-01
	-3.637587872787305e-16
	4.574266844380461e-19
	-3.121283619596471e-16
	4.118773392932390e-08
	1.621145246528177e-06
	6.303750113830169e-08

 54	5.400000000000003e-01
	-3.589381109045901e-16
	4.647185818954145e-19
	-3.313020517769457e-16
	5.287511038150702e-08
	2.050656908628305e-06
	8.132225953071733e-08

 55	5.500000000000003e-01
	-3.540720649471610e-16
	4.705446236933319e-19
	-3.508894264623121e-16
	6.751137625243506e-08
	2.577082265154602e-06
	1.043734623568431e-07

 56	5.600000000000003e-01
	-3.491757771889126e-16
	4.748138043977451e-19
	-3.708151934432812e-16
	8.570380213356206e-08
	3.217167783067317e-06
	1.332425227440247e-07

 57	5.700000000000003e-01
	-3.442650367198968e-16
	4.774528177719698e-19
	-3.909996883394724e-16
	1.081405763447199e-07
	3.989445319556206e-06
	1.691571674468367e-07

 58	5.800000000000003e-01
	-3.393560146451537e-16
	4.784076684500266e-19
	-4.113602346312462e-16
	1.355897101669012e-07
	4.914348516257999e-06
	2.135398285236178e-07

 59	5.900000000000003e-01
	-3.344649747520866e-16
	4.776447155192170e-19
	-4.318125819999253e-16
	1.688949768298650e-07
	6.014386669729864e-06
	2.680274788003974e-07

 60	6.000000000000003e-01
	-3.296079848480133e-16
	4.751511102105607e-19
	-4.522723702643068e-16
	2.089687193050339e-07
	7.314376142155106e-06
	3.344935014150159e-07

 61	6.100000000000003e-01
	-3.248006392173625e-16
	4.709346215258069e-19
	-4.726565657349849e-16
	2.567814803071238e-07
	8.841707819815791e-06
	4.150720816120351e-07

 62	6.200000000000003e-01
	-3.200578017658892e-16
	4.650228746692019e-19
	-4.928848198988882e-16
	3.133484812775777e-07
	1.062660329009750e-05
	5.121852667532416e-07

 63	6.300000000000003e-01
	-3.153933780099370e-16
	4.574620552361378e-19
	-5.128807062569020e-16
	3.797130021994532e-07
	1.270228664015903e-05
	6.285722362454746e-07

 64	6.400000000000003e-01
	-3.108201222669544e-16
	4.483151552875823e-19
	-5.325727992679309e-16
	4.569267148392895e-07
	1.510497809367787e-05
	7.673194823302859e-07

 65	6.500000000000004e-01
	-3.063494843674556e-16
	4.376598543417318e-19
	-5.518955689586075e-16
	5.460270461282170e-07
	1.787360499155908e-05
	9.318896010695447e-07

 66	6.600000000000004e-01
	-3.019914981022924e-16
	4.255861382550368e-19
	-5.707900750358983e-16
	6.480117530214210e-07
	2.104912919202321e-05
	1.126145352299821e-06

 67	6.700000000000004e-01
	-2.977547115949093e-16
	4.121937619289037e-19
	-5.892044545155861e-16
	7.638111205221524e-07
	2.467341126027123e-05
	1.354364728695671e-06

 68	6.800000000000004e-01
	-2.936461579737434e-16
	3.975896583488456e-19
	-6.070942062783485e-16
	8.942585622019506e-07
	2.878757297549138e-05
	1.621242166737273e-06

 69	6.900000000000004e-01
	-2.896713632090451e-16
	3.818853876767827e-19
	-6.244222840631884e-16
	1.040060870885987e-06
	3.342988052540534e-05
	1.931870936587606e-06

 70	7.000000000000004e-01
	-2.858343868274824e-16
	3.651947073017310e-19
	-6.411590158593416e-16
	1.201769849984263e-06
	3.863324724572509e-05
	2.291702344208327e-06

 71	7.100000000000004e-01
	-2.821378904468097e-16
	3.476313283510021e-19
	-6.572818722968401e-16
	1.379757431971815e-06
	4.442253754425659e-05
	2.706478781962049e-06

 72	7.200000000000004e-01
	-2.785832286694769e-16
	3.293069075772712e-19
	-6.727751094613411e-16
	1.574196532592475e-06
	5.081192784215558e-05
	3.182139866114084e-06

 73	7.300000000000004e-01
	-2.751705568011368e-16
	3.103293070113223e-19
	-6.876293127029713e-16
	1.785049701770610e-06
	5.780262761281306e-05
	3.724703724649476e-06

 74	7.400000000000004e-01
	-2.718989500636755e-16
	2.908011383152987e-19
	-7.018408677000829e-16
	2.012067085394316e-06
	6.538126669740906e-05
	4.340128587705709e-06

 75	7.500000000000004e-01
	-2.687665293896489e-16
	2.708185951177891e-19
	-7.154113835630142e-16
	2.254794361975878e-06
	7.351920404964614e-05
	5.034162685726011e-06

 76	7.600000000000005e-01
	-2.657705894513374e-16
	2.504705652168389e-19
	-7.283470904269903e-16
	2.512590300410218e-06
	8.217291034539374e-05
	5.812192536317127e-06

 77	7.700000000000005e-01
	-2.629077252320967e-16
	2.298380056015386e-19
	-7.406582310866522e-16
	2.784652583286931e-06
	9.128543897838388e-05
	6.679100554232282e-06

 78	7.800000000000005e-01
	-2.601739541371109e-16
	2.089935567612793e-19
	-7.523584630372280e-16
	3.070049737295244e-06
	1.007888540443447e-04
	7.639142327724782e-06

 79	7.900000000000005e-01
	-2.575648313216642e-16
	1.880013685579617e-19
	-7.634642840362940e-16
	3.367756541573897e-06
	1.106073602901114e-04
	8.695851941512947e-06

 80	8.000000000000005e-01
	-2.550755565548790e-16
	1.669171077580834e-19
	-7.739944911638457e-16
	3.676690199006824e-06
	1.206608030935189e-04
	9.851980745229231e-06

 81	8.100000000000005e-01
	-2.527010715130239e-16
	1.457881168264345e-19
	-7.839696804660861e-16
	3.995744821840283e-06
	1.308681881100488e-04
	1.110947150480503e-05

 82	8.200000000000005e-01
	-2.504361468956555e-16
	1.246536944177302e-19
	-7.934117917035639e-16
	4.323822304390451e-06
	1.411509072750886e-04
	1.246946651442215e-05

 83	8.300000000000005e-01
	-2.482754591743665e-16
	1.035454698225586e-19
	-8.023437005316067e-16
	4.659858304964519e-06
	1.514354354460527e-04
	1.393234547629911e-05

 84	8.400000000000005e-01
	-2.462136571180730e-16
	8.248784611542828e-20
	-8.107888586331712e-16
	5.002842714517978e-06
	1.616553591831673e-04
	1.549778707759637e-05

 85	8.500000000000005e-01
	-2.442454184952741e-16
	6.149848964347465e-20
	-8.187709808902931e-16
	5.351834558903818e-06
	1.717526955263312e-04
	1.716484729912450e-05

 86	8.600000000000005e-01
	-2.423654975400334e-16
	4.058884656034570e-20
	-8.263137775925714e-16
	5.705971712742969e-06
	1.816785388072156e-04
	1.893204748851252e-05

 87	8.700000000000006e-01
	-2.405687638937411e-16
	1.976467017633520e-20
	-8.334407289015137e-16
	6.064476081494404e-06
	1.913931293878653e-04
	2.079746591233149e-05

 88	8.800000000000006e-01
	-2.388502338087368e-16
	-9.734541665297866e-22
	-8.401748982747837e-16
	6.426655047435402e-06
	2.008654683300472e-04
	2.275882761201664e-05

 89	8.900000000000006e-01
	-2.372050944322579e-16
	-2.162959726587697e-20
	-8.465387812598718e-16
	6.791900003697296e-06
	2.100726097993593e-04
	2.481358868397263e-05

 90	9.000000000000006e-01
	-2.356287219889697e-16
	-4.221199540062918e-20
	-8.525541859493989e-16
	7.159682751876844e-06
	2.189987544192807e-04
	2.695901239032897e-05

 91	9.100000000000006e-01
	-2.341166946555819e-16
	-6.273258681912552e-20
	-8.582421414107021e-16
	7.529550444351321e-06
	2.276342482331706e-04
	2.919223565192393e-05

 92	9.200000000000006e-01
	-2.326648008788122e-16
	-8.320657950770316e-20
	-8.636228305253598e-16
	7.901119637419335e-06
	2.359745690028937e-04
	3.151032540860718e-05

 93	9.300000000000006e-01
	-2.312690438340397e-16
	-1.036520528295129e-19
	-8.687155438701596e-16
	8.274069903674228e-06
	2.440193584231445e-04
	3.391032503223798e-05

 94	9.400000000000006e-01
	-2.299256426611946e-16
	-1.240895943561898e-19
	-8.735386515146011e-16
	8.648137342823679e-06
	2.517715380793207e-04
	3.638929145693863e-05

 95	9.500000000000006e-01
	-2.286310293645723e-16
	-1.445420036011601e-19
	-8.781095963589354e-16
	9.023108663144676e-06
	2.592365403234853e-04
	3.894432762458095e-05

 96	9.600000000000006e-01
	-2.273818521071319e-16
	-1.650338714076753e-19
	-8.824448670535920e-16
	9.398813412863162e-06
	2.664215987856333e-04
	4.157258943792069e-05

 97	9.700000000000006e-01
	-2.261749595145552e-16
	-1.855915168313802e-19
	-8.865600480423839e-16
	9.775120985573269e-06
	2.733352567675683e-04
	4.427132318602229e-05

 98	9.800000000000006e-01
	-2.250074011959249e-16
	-2.062426279588673e-19
	-8.904698097372451e-16
	1.015193369414268e-05
	2.799868707375704e-04
	4.703786128779356e-05

 99	9.900000000000007e-01
	-2.238764184041550e-16
	-2.270161001000286e-19
	-8.941879397671926e-16
	1.052918256073691e-05
	2.863862618071848e-04
	4.986963233370171e-05

 100	1.000000000000001e+00
	-2.227794358028582e-16
	-2.479418687380765e-19
	-8.977273721088052e-16
	1.090682315007663e-05
	2.925434366752491e-04
	5.276416427095437e-05

 101	1.010000000000001e+00
	-2.217140527744854e-16
	-2.690507690116737e-19
	-9.011002198615562e-16
	1.128483187638597e-05
	2.984683767623739e-04
	5.571908514994566e-05

 102	1.020000000000001e+00
	-2.206780344660992e-16
	-2.903744196165647e-19
	-9.043178105789855e-16
	1.166320275538155e-05
	3.041708836925021e-04
	5.873212205380536e-05

 103	1.030000000000001e+00
	-2.196693027337833e-16
	-3.119451290449190e-19
	-9.073907232446419e-16
	1.204194456674418e-05
	3.096604703785569e-04
	6.180109871969171e-05

 104	1.040000000000001e+00
	-2.186859271158722e-16
	-3.337958221504289e-19
	-9.103288261387658e-16
	1.242107838983451e-05
	3.149462882975685e-04
	6.492393225956653e-05

 105	1.050000000000001e+00
	-2.177261159386047e-16
	-3.559599851271086e-19
	-9.131413149789852e-16
	1.280063547497808e-05
	3.200370829256570e-04
	6.809862930099112e-05

 106	1.060000000000001e+00
	-2.167882076350647e-16
	-3.784716271080954e-19
	-9.158367508373109e-16
	1.318065541370740e-05
	3.249411706363992e-04
	7.132328179492772e-05

 107	1.070000000000001e+00
	-2.158706623389958e-16
	-4.013652567219321e-19
	-9.184230974380250e-16
	1.356118457335536e-05
	3.296664315851831e-04
	7.459606267678544e-05

 108	1.080000000000001e+00
	-2.149720537988698e-16
	-4.246758720808210e-19
	-9.209077575283160e-16
	1.394227476394519e-05
	3.342203141770570e-04
	7.791522151767812e-05

 109	1.090000000000001e+00
	-2.140910616440860e-16
	-4.484389628144808e-19
	-9.232976080873236e-16
	1.432398210813533e-05
	3.386098476375546e-04
	8.127908026358964e-05

 110	1.100000000000001e+00
	-2.132264640240471e-16
	-4.726905229001774e-19
	-9.255990342012595e-16
	1.470636608785567e-05
	3.428416599794452e-04
	8.468602912931957e-05

 111	1.110000000000001e+00
	-2.123771306317534e-16
	-4.974670731731630e-19
	-9.278179614838396e-16
	1.508948874408935e-05
	3.469219992954300e-04
	8.813452269031904e-05

 112	1.120000000000001e+00
	-2.115420161162046e-16
	-5.228056925290554e-19
	-9.299598869638620e-16
	1.547341400892800e-05
	3.508567568230895e-04
	9.162307619750257e-05

 113	1.130000000000001e+00
	-2.107201538820569e-16
	-5.487440569501574e-19
	-9.320299083965437e-16
	1.585820715151166e-05
	3.546514906407396e-04
	9.515026212672942e-05

 114	1.140000000000001e+00
	-2.099106502703742e-16
	-5.753204856008560e-19
	-9.340327519833935e-16
	1.624393432173544e-05
	3.583114491776870e-04
	9.871470696493031e-05

 115	1.150000000000001e+00
	-2.091126791107933e-16
	-6.025739933422145e-19
	-9.359727985078392e-16
	1.663066217765500e-05
	3.618415939747463e-04
	1.023150882280095e-04

 116	1.160000000000001e+00
	-2.083254766327669e-16
	-6.305443491133458e-19
	-9.378541079115102e-16
	1.701845758435644e-05
	3.652466213242376e-04
	1.059501317010239e-04

 117	1.170000000000001e+00
	-2.075483367216387e-16
	-6.592721397160621e-19
	-9.396804423497011e-16
	1.740738737368409e-05
	3.685309825645301e-04
	1.096186088881951e-04

 118	1.180000000000001e+00
	-2.067806065039827e-16
	-6.887988386219109e-19
	-9.414552877748287e-16
	1.779751815565556e-05
	3.716989029123295e-04
	1.133193346586405e-04

 119	1.190000000000001e+00
	-2.060216822458289e-16
	-7.191668794953350e-19
	-9.431818741041433e-16
	1.818891617365423e-05
	3.747543987943797e-04
	1.170511650729455e-04

 120	1.200000000000001e+00
	-2.052710055469475e-16
	-7.504197341951537e-19
	-9.448631940331655e-16
	1.858164719659057e-05
	3.777012936957122e-04
	1.208129953756186e-04

 121	1.210000000000001e+00
	-2.045280598142737e-16
	-7.826019950790308e-19
	-9.465020205596029e-16
	1.897577644218561e-05
	3.805432325793886e-04
	1.246037581388409e-04

 122	1.220000000000001e+00
	-2.037923669976635e-16
	-8.157594614924832e-19
	-9.481009232842814e-16
	1.937136852636214e-05
	3.832836949570881e-04
	1.284224215436058e-04

 123	1.230000000000001e+00
	-2.030634845715146e-16
	-8.499392303757169e-19
	-9.496622835562103e-16
	1.976848743445437e-05
	3.859260067043444e-04
	1.322679877852162e-04

 124	1.240000000000001e+00
	-2.023410027462464e-16
	-8.851897909689984e-19
	-9.511883085284826e-16
	2.016719651057041e-05
	3.884733507213216e-04
	1.361394915910833e-04

 125	1.250000000000001e+00
	-2.016245418942082e-16
	-9.215611236407608e-19
	-9.526810441905778e-16
	2.056755846198410e-05
	3.909287765418792e-04
	1.400359988398018e-04

 126	1.260000000000001e+00
	-2.009137501752447e-16
	-9.591048029022404e-19
	-9.541423874409156e-16
	2.096963537589597e-05
	3.932952089917998e-04
	1.439566052714821e-04

 127	1.270000000000001e+00
	-2.002083013478417e-16
	-9.978741047093799e-19
	-9.555740972613407e-16
	2.137348874630651e-05
	3.955754559927691e-04
	1.479004352803275e-04

 128	1.280000000000001e+00
	-1.995078927525074e-16
	-1.037924118186691e-18
	-9.569778050528064e-16
	2.177917950908762e-05
	3.977722156027873e-04
	1.518666407813649e-04

 129	1.290000000000001e+00
	-1.988122434547954e-16
	-1.079311861939628e-18
	-9.583550241888038e-16
	2.218676808363546e-05
	3.998880823769150e-04
	1.558544001441222e-04

 130	1.300000000000001e+00
	-1.981210925361067e-16
	-1.122096405151367e-18
	-9.597071588403548e-16
	2.259631441974116e-05
	4.019255531250681e-04
	1.598629171868435e-04

 131	1.310000000000001e+00
	-1.974341975211633e-16
	-1.166338993688783e-18
	-9.610355121234611e-16
	2.300787804853453e-05
	4.038870321363200e-04
	1.638914202255680e-04

 132	1.320000000000001e+00
	-1.967513329317385e-16
	-1.212103181468191e-18
	-9.623412936170907e-16
	2.342151813654092e-05
	4.057748359320967e-04
	1.679391611730498e-04

 133	1.330000000000001e+00
	-1.960722889569449e-16
	-1.259454967357912e-18
	-9.636256262968781e-16
	2.383729354205208e-05
	4.075911976039212e-04
	1.720054146830975e-04

 134	1.340000000000001e+00
	-1.953968702310352e-16
	-1.308462937918849e-18
	-9.648895529269641e-16
	2.425526287314752e-05
	4.093382707850719e-04
	1.760894773364265e-04

 135	1.350000000000001e+00
	-1.947248947103169e-16
	-1.359198416308746e-18
	-9.661340419496416e-16
	2.467548454681877e-05
	4.110181332997123e-04
	1.801906668645850e-04

 136	1.360000000000001e+00
	-1.940561926413788e-16
	-1.411735617699134e-18
	-9.673599929098994e-16
	2.509801684874872e-05
	4.126327905277813e-04
	1.843083214089267e-04

 137	1.370000000000001e+00
	-1.933906056134059e-16
	-1.466151811577402e-18
	-9.685682414494008e-16
	2.552291799338184e-05
	4.141841785191443e-04
	1.884417988119560e-04

 138	1.380000000000001e+00
	-1.927279856879035e-16
	-1.522527491329381e-18
	-9.697595639020445e-16
	2.595024618399290e-05
	4.156741668862611e-04
	1.925904759386885e-04

 139	1.390000000000001e+00
	-1.920681945996441e-16
	-1.580946551520887e-18
	-9.709346815210086e-16
	2.638005967252334e-05
	4.171045615008127e-04
	1.967537480259441e-04

 140	1.400000000000001e+00
	-1.914111030231456e-16
	-1.641496473319838e-18
	-9.720942643649611e-16
	2.681241681900377e-05
	4.184771070163811e-04
	2.009310280577165e-04

 141	1.410000000000001e+00
	-1.907565898994181e-16
	-1.704268518523443e-18
	-9.732389348691493e-16
	2.724737615042849e-05
	4.197934892363377e-04
	2.051217461649955e-04

 142	1.420000000000001e+00
	-1.901045418181377e-16
	-1.769357932678557e-18
	-9.743692711251101e-16
	2.768499641897937e-05
	4.210553373434893e-04
	2.093253490485533e-04

 143	1.430000000000001e+00
	-1.894548524507953e-16
	-1.836864157806541e-18
	-9.754858098909962e-16
	2.812533665953274e-05
	4.222642260058173e-04
	2.135412994234097e-04

 144	1.440000000000001e+00
	-1.888074220307142e-16
	-1.906891055268307e-18
	-9.765890493527928e-16
	2.856845624640473e-05
	4.234216773706571e-04
	2.177690754837856e-04

 145	1.450000000000001e+00
	-1.881621568761835e-16
	-1.979547139328360e-18
	-9.776794516551381e-16
	2.901441494931417e-05
	4.245291629580006e-04
	2.220081703874857e-04

 146	1.460000000000001e+00
	-1.875189689532367e-16
	-2.054945822001890e-18
	-9.787574452190192e-16
	2.946327298856016e-05
	4.255881054621389e-04
	2.262580917587543e-04

 147	1.470000000000001e+00
	-1.868777754749179e-16
	-2.133205669792556e-18
	-9.798234268621961e-16
	2.991509108942582e-05
	4.265998804696049e-04
	2.305183612087237e-04

 148	1.480000000000001e+00
	-1.862384985341222e-16
	-2.214450672953623e-18
	-9.808777637369882e-16
	3.036993053583165e-05
	4.275658181003102e-04
	2.347885138726501e-04

 149	1.490000000000001e+00
	-1.856010647673465e-16
	-2.298810527929552e-18
	-9.819207950988437e-16
	3.082785322327451e-05
	4.284872045778417e-04
	2.390680979632090e-04

 150	1.500000000000001e+00
	-1.849654050469187e-16
	-2.386420933659449e-18
	-9.829528339180100e-16
	3.128892171109295e-05
	4.293652837341053e-04
	2.433566743391578e-04

 151	1.510000000000001e+00
	-1.843314541994747e-16
	-2.477423902448255e-18
	-9.839741683456304e-16
	3.175319927410956e-05
	4.302012584528326e-04
	2.476538160887379e-04

 152	1.520000000000001e+00
	-1.836991507486449e-16
	-2.571968086134882e-18
	-9.849850630446301e-16
	3.222074995370448e-05
	4.309962920558950e-04
	2.519591081272238e-04

 153	1.530000000000001e+00
	-1.830684366800898e-16
	-2.670209118310204e-18
	-9.859857603948790e-16
	3.269163860837938e-05
	4.317515096358949e-04
	2.562721468080634e-04

 154	1.540000000000001e+00
	-1.824392572271955e-16
	-2.772309973359441e-18
	-9.869764815813020e-16
	3.316593096387397e-05
	4.324679993380802e-04
	2.605925395470894e-04

 155	1.550000000000001e+00
	-1.818115606758751e-16
	-2.878441343124293e-18
	-9.879574275728890e-16
	3.364369366290089e-05
	4.331468135942979e-04
	2.649199044593072e-04

 156	1.560000000000001e+00
	-1.811852981870686e-16
	-2.988782032000576e-18
	-9.889287799998366e-16
	3.412499431456479e-05
	4.337889703113943e-04
	2.692538700077946e-04

 157	1.570000000000001e+00
	-1.805604236356752e-16
	-3.103519371302355e-18
	-9.898907019353952e-16
	3.460990154353489e-05
	4.343954540162314e-04
	2.735940746642634e-04

 158	1.580000000000001e+00
	-1.799368934647365e-16
	-3.222849653740771e-18
	-9.908433385884730e-16
	3.509848503904023e-05
	4.349672169592685e-04
	2.779401665808653e-04

 159	1.590000000000001e+00
	-1.793146665538356e-16
	-3.346978588874977e-18
	-9.917868179124244e-16
	3.559081560375748e-05
	4.355051801784921e-04
	2.822918032728325e-04

 160	1.600000000000001e+00
	-1.786937041007470e-16
	-3.476121780402591e-18
	-9.927212511349962e-16
	3.608696520266225e-05
	4.360102345253117e-04
	2.866486513115656e-04

 161	1.610000000000001e+00
	-1.780739695154830e-16
	-3.610505226159122e-18
	-9.936467332139403e-16
	3.658700701191393e-05
	4.364832416539225e-04
	2.910103860277952e-04

 162	1.620000000000001e+00
	-1.774554283259602e-16
	-3.750365841694434e-18
	-9.945633432223502e-16
	3.709101546784574e-05
	4.369250349755228e-04
	2.953766912244625e-04

 163	1.630000000000001e+00
	-1.768380480945851e-16
	-3.895952008287244e-18
	-9.954711446674259e-16
	3.759906631612946e-05
	4.373364205786701e-04
	2.997472588989678e-04

 164	1.640000000000001e+00
	-1.762217983451367e-16
	-4.047524146241597e-18
	-9.963701857459903e-16
	3.811123666118641e-05
	4.377181781170008e-04
	3.041217889744588e-04

 165	1.650000000000001e+00
	-1.756066504993808e-16
	-4.205355314287813e-18
	-9.972604995397729e-16
	3.862760501591446e-05
	4.380710616654456e-04
	3.084999890398402e-04

 166	1.660000000000001e+00
	-1.749925778229270e-16
	-4.369731835874983e-18
	-9.981421041531763e-16
	3.914825135180054e-05
	4.383958005460273e-04
	3.128815740981848e-04

 167	1.670000000000001e+00
	-1.743795553798748e-16
	-4.540953953100233e-18
	-9.990150027959695e-16
	3.967325714948984e-05
	4.386931001242700e-04
	3.172662663232618e-04

 168	1.680000000000001e+00
	-1.737675599958653e-16
	-4.719336508959741e-18
	-9.998791838131485e-16
	4.020270544987981e-05
	4.389636425771984e-04
	3.216537948238799e-04

 169	1.690000000000001e+00
	-1.731565702291890e-16
	-4.905209658537972e-18
	-1.000734620663948e-15
	4.073668090580888e-05
	4.392080876338686e-04
	3.260438954157730e-04

 170	1.700000000000001e+00
	-1.725465663496476e-16
	-5.098919609661510e-18
	-1.001581271851857e-15
	4.127526983440981e-05
	4.394270732893347e-04
	3.304363104007587e-04

 171	1.710000000000001e+00
	-1.719375303249084e-16
	-5.300829393437993e-18
	-1.002419080807298e-15
	4.181856027019570e-05
	4.396212164929133e-04
	3.348307883529037e-04

 172	1.720000000000001e+00
	-1.713294458141201e-16
	-5.511319664972363e-18
	-1.003247975724522e-15
	4.236664201894789e-05
	4.397911138115882e-04
	3.392270839114471e-04

 173	1.730000000000001e+00
	-1.707222981685919e-16
	-5.730789534403563e-18
	-1.004067869354173e-15
	4.291960671247611e-05
	4.399373420693547e-04
	3.436249575802368e-04

 174	1.740000000000001e+00
	-1.701160744393648e-16
	-5.959657428224339e-18
	-1.004878658752877e-15
	4.347754786431852e-05
	4.400604589632911e-04
	3.480241755334387e-04

 175	1.750000000000001e+00
	-1.695107633915254e-16
	-6.198361980643459e-18
	-1.005680224991219e-15
	4.404056092645216e-05