Title: **.subckt gm_id_nmos
Date: Tue Jun  1 20:09:29  2021
Plotname: DC transfer characteristic
Flags: real
No. Variables: 7
No. Points: 181
Variables:
	0	v(v-sweep)	voltage
	1	@m.xm1.msky130_fd_pr__nfet_01v8[cgb]	capacitance
	2	@m.xm1.msky130_fd_pr__nfet_01v8[cgd]	capacitance
	3	@m.xm1.msky130_fd_pr__nfet_01v8[cgs]	capacitance
	4	@m.xm1.msky130_fd_pr__nfet_01v8[gds]	admittance
	5	@m.xm1.msky130_fd_pr__nfet_01v8[gm]	admittance
	6	i(@m.xm1.msky130_fd_pr__nfet_01v8[id])	current
Values:
 0	0.000000000000000e+00
	-7.359161034432674e-16
	6.727873019948289e-20
	-1.570227772065605e-17
	2.177720898487250e-14
	1.378314109616080e-12
	5.035898211441353e-14

 1	1.000000000000000e-02
	-7.318491248863505e-16
	7.210870476278097e-20
	-1.679576305478386e-17
	2.858549870696987e-14
	1.812180125584095e-12
	6.621264342287522e-14

 2	2.000000000000000e-02
	-7.278195147662337e-16
	7.733561407702083e-20
	-1.798244993372780e-17
	3.752186542379264e-14
	2.382592624470763e-12
	8.705660754363966e-14

 3	3.000000000000000e-02
	-7.238239188225193e-16
	8.299617551538143e-20
	-1.927115754081429e-17
	4.925129142970860e-14
	3.132512449698370e-12
	1.144613658333909e-13

 4	4.000000000000000e-02
	-7.198588563965753e-16
	8.913029821473613e-20
	-2.067150414975982e-17
	6.464646153696846e-14
	4.118410331706283e-12
	1.504914947076876e-13

 5	5.000000000000000e-02
	-7.159207068835204e-16
	9.578130033641058e-20
	-2.219396627962937e-17
	8.485259342437732e-14
	5.414511977801549e-12
	1.978610154203896e-13

 6	6.000000000000000e-02
	-7.120056957545935e-16
	1.029961356980053e-19
	-2.384994092553746e-17
	1.113724819667996e-13
	7.118375356162150e-12
	2.601375635276393e-13

 7	7.000000000000001e-02
	-7.081098801671674e-16
	1.108256293618094e-19
	-2.565181082952373e-17
	1.461780495670915e-13
	9.358217381439396e-12
	3.420106816357703e-13

 8	8.000000000000000e-02
	-7.042291341988037e-16
	1.193247214173983e-19
	-2.761301267721851e-17
	1.918566477328658e-13
	1.230253743147944e-11
	4.496443428881218e-13

 9	9.000000000000000e-02
	-7.003591337672906e-16
	1.285527177323058e-19
	-2.974810799947072e-17
	2.518029120508607e-13
	1.617275577217864e-11
	5.911401018135557e-13

 10	9.999999999999999e-02
	-6.964953413318871e-16
	1.385735458429230e-19
	-3.207285641823723e-17
	3.304703185685314e-13
	2.125980847822081e-11
	7.771455173262847e-13

 11	1.100000000000000e-01
	-6.926329905131414e-16
	1.494560133954882e-19
	-3.460429069683232e-17
	4.337009658474604e-13
	2.794593301993601e-11
	1.021653305952157e-12

 12	1.200000000000000e-01
	-6.887670708209087e-16
	1.612740656033650e-19
	-3.736079283027509e-17
	5.691578279548432e-13
	3.673326143430050e-11
	1.343050853336981e-12

 13	1.300000000000000e-01
	-6.848923127434695e-16
	1.741070370436422e-19
	-4.036217013664040e-17
	7.468911981540951e-13
	4.828133831873215e-11
	1.765498271478719e-12

 14	1.400000000000000e-01
	-6.810031735256685e-16
	1.880398917606226e-19
	-4.362972998060677e-17
	9.800808018260431e-13
	6.345633432889282e-11
	2.320737483763834e-12

 15	1.500000000000000e-01
	-6.770938240510122e-16
	2.031634440703540e-19
	-4.718635137293367e-17
	1.286007788270241e-12
	8.339557843636345e-11
	3.050466601174990e-12

 16	1.600000000000000e-01
	-6.731581373413562e-16
	2.195745506733514e-19
	-5.105655124365856e-17
	1.687327404853112e-12
	1.095921433163190e-10
	4.009455396769036e-12

 17	1.700000000000000e-01
	-6.691896792971540e-16
	2.373762626996553e-19
	-5.526654268457229e-17
	2.213734763057014e-12
	1.440056643785173e-10
	5.269631943575312e-12

 18	1.800000000000000e-01
	-6.651817024192914e-16
	2.566779241651715e-19
	-5.984428190401856e-17
	2.904144204812176e-12
	1.892074522844596e-10
	6.925441274218089e-12

 19	1.900000000000000e-01
	-6.611271433771404e-16
	2.775952010646924e-19
	-6.481950004499577e-17
	3.809539270148624e-12
	2.485703967929741e-10
	9.100869182688763e-12

 20	2.000000000000000e-01
	-6.570186254123194e-16
	3.002500230428859e-19
	-7.022371540249508e-17
	4.996697586512626e-12
	3.265173161406094e-10
	1.195864437331031e-11

 21	2.100000000000000e-01
	-6.528484666877523e-16
	3.247704173744483e-19
	-7.609022096129247e-17
	6.553056246728288e-12
	4.288454830435773e-10
	1.571228822402722e-11

 22	2.200000000000001e-01
	-6.486086957994625e-16
	3.512902129836401e-19
	-8.245404159210398e-17
	8.593062350197121e-12
	5.631503101138338e-10
	2.064188389987607e-11

 23	2.300000000000001e-01
	-6.442910757548026e-16
	3.799485906080735e-19
	-8.935185473158862e-17
	1.126645531274467e-11
	7.393779215353528e-10
	2.711469870574138e-11

 24	2.400000000000001e-01
	-6.398871377745314e-16
	4.108894541589466e-19
	-9.682186797795053e-17
	1.476905852362188e-11
	9.705449671727805e-10
	3.561213222523494e-11

 25	2.500000000000001e-01
	-6.353882262841457e-16
	4.442605980874796e-19
	-1.049036468181419e-16
	1.935682567805554e-11
	1.273675030977408e-09
	4.676489913710673e-11

 26	2.600000000000001e-01
	-6.307855564109456e-16
	4.802126463420128e-19
	-1.136378857176775e-16
	2.536410116077577e-11
	1.671014928336799e-09
	6.139891609986973e-11

 27	2.700000000000001e-01
	-6.260702851776829e-16
	5.188977406446805e-19
	-1.230661161421514e-16
	3.322732581004244e-11
	2.191611768103502e-09
	8.059507960878041e-11

 28	2.800000000000001e-01
	-6.212335973756312e-16
	5.604679594494482e-19
	-1.332303457753756e-16
	4.351576316178219e-11
	2.873353676896951e-09
	1.057670365204414e-10

 29	2.900000000000001e-01
	-6.162668067897325e-16
	6.050734544199193e-19
	-1.441726243512321e-16
	5.697125329665573e-11
	3.765604456900210e-09
	1.387622099268813e-10

 30	3.000000000000001e-01
	-6.111614730321131e-16
	6.528602986729762e-19
	-1.559345331580490e-16
	7.455954061024660e-11
	4.932596166500231e-09
	1.819928086463143e-10

 31	3.100000000000001e-01
	-6.059095337117981e-16
	7.039680504924186e-19
	-1.685565974506366e-16
	9.753638937091247e-11
	6.457784704685676e-09
	2.386053873801789e-10

 32	3.200000000000001e-01
	-6.005034510310099e-16
	7.585270476824757e-19
	-1.820776237231051e-16
	1.275325195135345e-10
	8.449422925872035e-09
	3.126998152878268e-10

 33	3.300000000000001e-01
	-5.949363711632144e-16
	8.166554610202620e-19
	-1.965339670289371e-16
	1.666623875747031e-10
	1.104766441496034e-08
	4.096113411250229e-10

 34	3.400000000000001e-01
	-5.892022939560839e-16
	8.784561500154372e-19
	-2.119587372132804e-16
	2.176630246517681e-10
	1.443357925200521e-08
	5.362729073470646e-10

 35	3.500000000000001e-01
	-5.832962496456258e-16
	9.440133798369384e-19
	-2.283809569265382e-16
	2.840705396177529e-10
	1.884054071858270e-08
	7.016790594189501e-10

 36	3.600000000000002e-01
	-5.772144784083534e-16
	1.013389474066111e-18
	-2.458246884465374e-16
	3.704435053872118e-10
	2.456852785611967e-08
	9.174778096930081e-10

 37	3.700000000000002e-01
	-5.709546077687902e-16
	1.086621492948398e-18
	-2.643081504272822e-16
	4.826442545180560e-10
	3.200198075443265e-08
	1.198722720495868e-09

 38	3.800000000000002e-01
	-5.645158221793252e-16
	1.163718039968461e-18
	-2.838428494519575e-16
	6.281910763249299e-10
	4.163193959053153e-08
	1.564824310765049e-09

 39	3.900000000000002e-01
	-5.578990185617393e-16
	1.244656309715630e-18
	-3.044327544038580e-16
	8.166963513762917e-10
	5.408328931840922e-08
	2.040747660538770e-09

 40	4.000000000000002e-01
	-5.511069413067995e-16
	1.329379495996212e-18
	-3.260735438800790e-16
	1.060407651450398e-09
	7.014801280059740e-08
	2.658511722362936e-09

 41	4.100000000000002e-01
	-5.441442902255134e-16
	1.417794679957299e-18
	-3.487519578738606e-16
	1.374870584138633e-09
	9.082541903490740e-08
	3.459055212749488e-09

 42	4.200000000000002e-01
	-5.370177952755526e-16
	1.509771312803237e-18
	-3.724452845005709e-16
	1.779733414860375e-09
	1.173703546244134e-07
	4.494543850633569e-09

 43	4.300000000000002e-01
	-5.297362525726271e-16
	1.605140396033583e-18
	-3.971210104707659e-16
	2.299713933478943e-09
	1.513504254167862e-07
	5.831203902012409e-09

 44	4.400000000000002e-01
	-5.223105172394275e-16
	1.703694443951088e-18
	-4.227366602505362e-16
	2.965748275899545e-09
	1.947132605198456e-07
	7.552777289380645e-09

 45	4.500000000000002e-01
	-5.147534500173232e-16
	1.805188288906525e-18
	-4.492398434421927e-16
	3.816339072163651e-09
	2.498648666566804e-07
	9.764703901745063e-09

 46	4.600000000000002e-01
	-5.070798162138074e-16
	1.909340760293680e-18
	-4.765685230431132e-16
	4.899116011338343e-09
	3.197601897159398e-07
	1.259914749763074e-08

 47	4.700000000000003e-01
	-4.993061374013779e-16
	2.015837235089318e-18
	-5.046515092004908e-16
	6.272615420367574e-09
	4.080071828140685e-07
	1.622099355087722e-08

 48	4.800000000000003e-01
	-4.914504982194807e-16
	2.124333022553439e-18
	-5.334091742904933e-16
	8.008276623513731e-09
	5.189860430844670e-07
	2.083496202054026e-08

 49	4.900000000000003e-01
	-4.835323125449516e-16
	2.234457510637501e-18
	-5.627543761125015e-16
	1.019264171577742e-08
	6.579858674049024e-07
	2.669399739569280e-08

 50	5.000000000000002e-01
	-4.755720550678947e-16
	2.345818968872367e-18
	-5.925935672505411e-16
	1.292973208334335e-08
	8.313617611041917e-07
	3.410912466760738e-08

 51	5.100000000000002e-01
	-4.675909658246915e-16
	2.458009874122720e-18
	-6.228280607636416e-16
	1.634355960801186e-08
	1.046716235505682e-06
	4.346099434392622e-08

 52	5.200000000000002e-01
	-4.596107363991277e-16
	2.570612603436742e-18
	-6.533554158281770e-16
	2.058071274344068e-08
	1.313109139001950e-06
	5.521338059385485e-08

 53	5.300000000000002e-01
	-4.516531872324976e-16
	2.683205323694092e-18
	-6.840709021801904e-16
	2.581293667818799e-08
	1.641299676453906e-06
	6.992893689711109e-08

 54	5.400000000000003e-01
	-4.437399457411743e-16
	2.795367901716428e-18
	-7.148689994804788e-16
	3.223960099220682e-08
	2.044021297793154e-06
	8.828753744235392e-08

 55	5.500000000000003e-01
	-4.358921347175699e-16
	2.906687661181211e-18
	-7.456448871838476e-16
	4.008991550118267e-08
	2.536284270663251e-06
	1.111075135908451e-07

 56	5.600000000000003e-01
	-4.281300798142040e-16
	3.016764823673042e-18
	-7.762958821120668e-16
	4.962471378334786e-08
	3.135690707306931e-06
	1.393699962551859e-07

 57	5.700000000000003e-01
	-4.204730438387247e-16
	3.125217489540914e-18
	-8.067227845304427e-16
	6.113757475742146e-08
	3.862732545252887e-06
	1.742463546573197e-07

 58	5.800000000000003e-01
	-4.129389942031211e-16
	3.231686038462357e-18
	-8.368310988026900e-16
	7.495500040435877e-08
	4.741025650123683e-06
	2.171283418819582e-07

 59	5.900000000000003e-01
	-4.055444082725621e-16
	3.335836857982047e-18
	-8.665321012423422e-16
	9.143532299663668e-08
	5.797415701157364e-06
	2.696600002425790e-07

 60	6.000000000000003e-01
	-3.983041196551513e-16
	3.437365338876602e-18
	-8.957437351281889e-16
	1.109659948749684e-07
	7.061878398354389e-06
	3.337696645602857e-07

 61	6.100000000000003e-01
	-3.912312067684223e-16
	3.535998107093901e-18
	-9.243913205268674e-16
	1.339589386772199e-07
	8.567133336599653e-06
	4.116996002588900e-07

 62	6.200000000000003e-01
	-3.843369234064138e-16
	3.631494491484570e-18
	-9.524080741131925e-16
	1.608437256371049e-07
	1.034790278148873e-05
	5.060300517939714e-07

 63	6.300000000000003e-01
	-3.776306695911583e-16
	3.723647253125371e-18
	-9.797354411994098e-16
	1.920585155907894e-07
	1.243977656444180e-05
	6.196939237787375e-07

 64	6.400000000000003e-01
	-3.711199997823639e-16
	3.812282624631191e-18
	-1.006323248361706e-15
	2.280389307835662e-07
	1.487769163704588e-05
	7.559781530775665e-07

 65	6.500000000000004e-01
	-3.648106645747474e-16
	3.897259725760234e-18
	-1.032129690162289e-15
	2.692053226856110e-07
	1.769409409601130e-05
	9.185082054839558e-07

 66	6.600000000000004e-01
	-3.587066813479934e-16
	3.978469434525625e-18
	-1.057121167383458e-15
	3.159491835668633e-07
	2.091691303027888e-05
	1.111213119537213e-06

 67	6.700000000000004e-01
	-3.528104289443880e-16
	4.055832800978873e-18
	-1.081271996882375e-15
	3.686196964665004e-07
	2.456752707938728e-05
	1.338270085009495e-06

 68	6.800000000000004e-01
	-3.471227613126175e-16
	4.129299094163713e-18
	-1.104564014688095e-15
	4.275115516381122e-07
	2.865893402756357e-05
	1.604029522606377e-06

 69	6.900000000000004e-01
	-3.416431351403555e-16
	4.198843572008494e-18
	-1.126986094403939e-15
	4.928551419311506e-07
	3.319433231337938e-05
	1.912923755510490e-06

 70	7.000000000000004e-01
	-3.363697467630385e-16
	4.264465059827955e-18
	-1.148533602501030e-15
	5.648100686852946e-07
	3.816628819003793e-05
	2.269364303877308e-06

 71	7.100000000000004e-01
	-3.312996740386049e-16
	4.326183416403426e-18
	-1.169207810869665e-15
	6.434625628918609e-07
	4.355659781333971e-05
	2.677634269134583e-06

 72	7.200000000000004e-01
	-3.264290193752518e-16
	4.384036958069363e-18
	-1.189015285219712e-15
	7.288270052883530e-07
	4.933687069147172e-05
	3.141782962796534e-06

 73	7.300000000000004e-01
	-3.217530506517549e-16
	4.438079901571221e-18
	-1.207967265769686e-15
	8.208512861626954e-07
	5.546977465505644e-05
	3.665529763485009e-06

 74	7.400000000000004e-01
	-3.172663373430382e-16
	4.488379876308437e-18
	-1.226079054300303e-15
	9.194253565689915e-07
	6.191080811513027e-05
	4.252183199557637e-06

 75	7.500000000000004e-01
	-3.129628797287489e-16
	4.535015546466268e-18
	-1.243369419214422e-15
	1.024392048061591e-06
	6.861041489206799e-05
	4.904579636234502e-06

 76	7.600000000000005e-01
	-3.088362295974670e-16
	4.578074373887982e-18
	-1.259860027856582e-15
	1.135559110758276e-06
	7.551623650345948e-05
	5.625043970879686e-06

 77	7.700000000000005e-01
	-3.048796013478978e-16
	4.617650543647625e-18
	-1.275574913090661e-15
	1.252711440343328e-06
	8.257530609649700e-05
	6.415372712370163e-06

 78	7.800000000000005e-01
	-3.010859728207562e-16
	4.653843066354967e-18
	-1.290539979076387e-15
	1.375622606943097e-06
	8.973602127560379e-05
	7.276838011372671e-06

 79	7.900000000000005e-01
	-2.974481755658234e-16
	4.686754064367886e-18
	-1.304782549364090e-15
	1.504065019363338e-06
	9.694978071130994e-05
	8.210209811163593e-06

 80	8.000000000000005e-01
	-2.939589745566242e-16
	4.716487243339635e-18
	-1.318330958861911e-15
	1.637818309418858e-06
	1.041722217403758e-04
	9.215792399198595e-06

 81	8.100000000000005e-01
	-2.906111376122170e-16
	4.743146545866410e-18
	-1.331214189924551e-15
	1.776675761645686e-06
	1.113640447587915e-04
	1.029347126083148e-05

 82	8.200000000000005e-01
	-2.873974949759156e-16
	4.766834980358723e-18
	-1.343461551758664e-15
	1.920448814637918e-06
	1.184914493625013e-04
	1.144276619997812e-05

 83	8.300000000000005e-01
	-2.843109896399549e-16
	4.787653615545175e-18
	-1.355102401520066e-15
	2.068969806849668e-06
	1.255262342205982e-04
	1.266288708686457e-05

 84	8.400000000000005e-01
	-2.813447190996593e-16
	4.805700729117523e-18
	-1.366165904868660e-15
	2.222093229623949e-06
	1.324456274878263e-04
	1.395278919675009e-05

 85	8.500000000000005e-01
	-2.784919692772629e-16
	4.821071097824689e-18
	-1.376680833322324e-15
	2.379695789911842e-06
	1.392319188874576e-04
	1.531122580101881e-05

 86	8.600000000000005e-01
	-2.757462413808427e-16
	4.833855415702550e-18
	-1.386675395483592e-15
	2.541675585822472e-06
	1.458719610510389e-04
	1.673679637103193e-05

 87	8.700000000000006e-01
	-2.731012724640672e-16
	4.844139826975553e-18
	-1.396177099076024e-15
	2.707950672303953e-06
	1.523565991047037e-04
	1.822798939111172e-05

 88	8.800000000000006e-01
	-2.705510504333416e-16
	4.852005560382184e-18
	-1.405212640695388e-15
	2.878457253362929e-06
	1.586800763538888e-04
	1.978321931242165e-05

 89	8.900000000000006e-01
	-2.680898242153757e-16
	4.857528652169680e-18
	-1.413807820231467e-15
	3.053147690456832e-06
	1.648394521926904e-04
	2.140085759921172e-05

 90	9.000000000000006e-01
	-2.657121097546070e-16
	4.860779745695024e-18
	-1.421987477028835e-15
	3.231988470528559e-06
	1.708340573831426e-04
	2.307925812418367e-05

 91	9.100000000000006e-01
	-2.634126924597243e-16
	4.861823956394192e-18
	-1.429775445012333e-15
	3.414958235609560e-06
	1.766650023843116e-04
	2.481677737236173e-05

 92	9.200000000000006e-01
	-2.611866266648062e-16
	4.860720791784454e-18
	-1.437194524190153e-15
	3.602045940995490e-06
	1.823347467889751e-04
	2.661179002991656e-05

 93	9.300000000000006e-01
	-2.590292304667591e-16
	4.857524138029109e-18
	-1.444266473860539e-15
	3.793249332703987e-06
	1.878467377738463e-04
	2.846270250755621e-05

 94	9.400000000000006e-01
	-2.569360893934463e-16
	4.852282178441549e-18
	-1.451011978597169e-15
	3.988572850174289e-06
	1.932050818341637e-04
	3.036795348906532e-05

 95	9.500000000000006e-01
	-2.549030365365659e-16
	4.845037553493066e-18
	-1.457450703266086e-15
	4.188027247943915e-06
	1.984143310287749e-04
	3.232603094103408e-05

 96	9.600000000000006e-01
	-2.529261535691417e-16
	4.835827330414484e-18
	-1.463601275910351e-15
	4.391627863614143e-06
	2.034792625412277e-04
	3.433546768188477e-05

 97	9.700000000000006e-01
	-2.510017596143318e-16
	4.824683097475398e-18
	-1.469481317927103e-15
	4.599393827932005e-06
	2.084047321624393e-04
	3.639484481386402e-05

 98	9.800000000000006e-01
	-2.491264016843847e-16
	4.811631048624189e-18
	-1.475107471215163e-15
	4.811347273716170e-06
	2.131955597598436e-04
	3.850279190641979e-05

 99	9.900000000000007e-01
	-2.472968446511277e-16
	4.796692075792653e-18
	-1.480495429375517e-15
	5.027512681171465e-06
	2.178564462550470e-04
	4.065798619715239e-05

 100	1.000000000000001e+00
	-2.455100609373195e-16
	4.779881865099028e-18
	-1.485659971946837e-15
	5.247916342067291e-06
	2.223919162538446e-04
	4.285915109559176e-05

 101	1.010000000000001e+00
	-2.437632200869053e-16
	4.761210993741635e-18
	-1.490615000804366e-15
	5.472585926148940e-06
	2.268062811418056e-04
	4.510505421977681e-05

 102	1.020000000000001e+00
	-2.420536783445395e-16
	4.740685024869121e-18
	-1.495373577981999e-15
	5.701550134541111e-06
	2.311036181682031e-04
	4.739450514729219e-05

 103	1.030000000000001e+00
	-2.403789683505092e-16
	4.718304598146825e-18
	-1.499947964294722e-15
	5.934838426527955e-06
	2.352877617367000e-04
	4.972635302114762e-05

 104	1.040000000000001e+00
	-2.387367890361064e-16
	4.694065514114904e-18
	-1.504349658242398e-15
	6.172480807780179e-06
	2.393623037695634e-04
	5.209948411637049e-05

 105	1.050000000000001e+00
	-2.371249957863037e-16
	4.667958810758932e-18
	-1.508589434767126e-15
	6.414507669732556e-06
	2.433306005950156e-04
	5.451281944481880e-05

 106	1.060000000000001e+00
	-2.355415909210113e-16
	4.639970830990368e-18
	-1.512677383516104e-15
	6.660949671331550e-06
	2.471957843170310e-04
	5.696531245283701e-05

 107	1.070000000000001e+00
	-2.339847145329254e-16
	4.610083279969025e-18
	-1.516622946330971e-15
	6.911837655736580e-06
	2.509607770628026e-04
	5.945594684820838e-05

 108	1.080000000000001e+00
	-2.324526357088211e-16
	4.578273271395770e-18
	-1.520434953744112e-15
	7.167202595759259e-06
	2.546283068689877e-04
	6.198373457869950e-05

 109	1.090000000000001e+00
	-2.309437441517740e-16
	4.544513362065600e-18
	-1.524121660313378e-15
	7.427075562864085e-06
	2.582009242699546e-04
	6.454771397366829e-05

 110	1.100000000000001e+00
	-2.294565422140573e-16
	4.508771574103701e-18
	-1.527690778669916e-15
	7.691487715440360e-06
	2.616810188969268e-04
	6.714694805210738e-05

 111	1.110000000000001e+00
	-2.279896373440919e-16
	4.471011404412499e-18
	-1.531149512190407e-15
	7.960470302804894e-06
	2.650708355938896e-04
	6.978052299461314e-05

 112	1.120000000000001e+00
	-2.265417349456781e-16
	4.431191820940370e-18
	-1.534504586235613e-15
	8.234054682022559e-06
	2.683724897117765e-04
	7.244754677263863e-05

 113	1.130000000000001e+00
	-2.251116316435902e-16
	4.389267245445590e-18
	-1.537762277922594e-15
	8.512272345153398e-06
	2.715879813636060e-04
	7.514714792563197e-05

 114	1.140000000000001e+00
	-2.236982089463897e-16
	4.345187522473286e-18
	-1.540928444418921e-15
	8.795154954968419e-06
	2.747192085160611e-04
	7.787847447498437e-05

 115	1.150000000000001e+00
	-2.223004272947905e-16
	4.298897874294206e-18
	-1.544008549764262e-15
	9.082734387531102e-06
	2.777679788627442e-04
	8.064069296282265e-05

 116	1.160000000000001e+00
	-2.209173204820539e-16
	4.250338841570139e-18
	-1.547007690238495e-15
	9.375042780335465e-06
	2.807360204755932e-04
	8.343298760341038e-05

 117	1.170000000000001e+00
	-2.195479904315258e-16
	4.199446209517195e-18
	-1.549930618306347e-15
	9.672112584931464e-06
	2.836249912675249e-04
	8.625455953508274e-05

 118	1.180000000000001e+00
	-2.181916023155466e-16
	4.146150919333919e-18
	-1.552781765177053e-15
	9.973976623164315e-06
	2.864364873244238e-04
	8.910462616109329e-05

 119	1.190000000000001e+00
	-2.168473799993835e-16
	4.090378964648938e-18
	-1.555565262023914e-15
	1.028066814631676e-05
	2.891720501807855e-04
	9.198242056843650e-05

 120	1.200000000000001e+00
	-2.155146017936135e-16
	4.032051272724056e-18
	-1.558284959913341e-15
	1.059222089657399e-05
	2.918331731227047e-04
	9.488719101448976e-05

 121	1.210000000000001e+00
	-2.141925964983503e-16
	3.971083570122357e-18
	-1.560944448496203e-15
	1.090866917033924e-05
	2.944213066061931e-04
	9.781820047218923e-05

 122	1.220000000000001e+00
	-2.128807397228938e-16
	3.907386232520928e-18
	-1.563547073516346e-15
	1.123004788301775e-05
	2.969378628794104e-04
	1.007747262253375e-04

 123	1.230000000000001e+00
	-2.115784504647030e-16
	3.840864118311935e-18
	-1.566095953192251e-15
	1.155639263495840e-05
	2.993842198952745e-04
	1.037560595065150e-04

 124	1.240000000000001e+00
	-2.102851879320380e-16
	3.771416385596526e-18
	-1.568593993528025e-15
	1.188773977830432e-05
	3.017617245970168e-04
	1.067615051709204e-04

 125	1.250000000000001e+00
	-2.090004485951470e-16
	3.698936292133342e-18
	-1.571043902609571e-15
	1.222412648455277e-05
	3.040716956541066e-04
	1.097903814002574e-04

 126	1.260000000000001e+00
	-2.077237634514521e-16
	3.623310977756940e-18
	-1.573448203940874e-15
	1.256559081266683e-05
	3.063154257201626e-04
	1.128420194315378e-04

 127	1.270000000000001e+00
	-2.064546954908488e-16
	3.544421228733523e-18
	-1.575809248874050e-15
	1.291217177761625e-05
	3.084941832782855e-04
	1.159157633063520e-04

 128	1.280000000000001e+00
	-2.051928373478727e-16
	3.462141223469208e-18
	-1.578129228185189e-15
	1.326390941925432e-05
	3.106092141330205e-04
	1.190109696367843e-04

 129	1.290000000000001e+00
	-2.039378091281771e-16
	3.376338258933644e-18
	-1.580410182846186e-15
	1.362084487146256e-05
	3.126617426020153e-04
	1.221270073847074e-04

 130	1.300000000000001e+00
	-2.026892563974427e-16
	3.286872457105670e-18
	-1.582654014040733e-15
	1.398302043151582e-05
	3.146529724545929e-04
	1.252632576516972e-04

 131	1.310000000000001e+00
	-2.014468483215155e-16
	3.193596450690870e-18
	-1.584862492470568e-15
	1.435047962963940e-05
	3.165840876389024e-04
	1.284191134772479e-04

 132	1.320000000000001e+00
	-2.002102759472373e-16
	3.096355047302070e-18
	-1.587037266995794e-15
	1.472326729874435e-05
	3.184562528341902e-04
	1.315939796433588e-04

 133	1.330000000000001e+00
	-1.989792506140746e-16
	2.994984871233181e-18
	-1.589179872650999e-15
	1.510142964434203e-05
	3.202706138600069e-04
	1.347872724839119e-04

 134	1.340000000000001e+00
	-1.977535024872874e-16
	2.889313981895394e-18
	-1.591291738076526e-15
	1.548501431464942e-05
	3.220282979698717e-04
	1.379984196975450e-04

 135	1.350000000000001e+00
	-1.965327792039780e-16
	2.779161467921837e-18
	-1.593374192402172e-15
	1.587407047090850e-05
	3.237304140530562e-04
	1.412268601629891e-04

 136	1.360000000000001e+00
	-1.953168446239409e-16
	2.664337015882580e-18
	-1.595428471618349e-15
	1.626864885795125e-05
	3.253780527646791e-04
	1.444720437560559e-04

 137	1.370000000000001e+00
	-1.941054776777881e-16
	2.544640452488193e-18
	-1.597455724467662e-15
	1.666880187505029e-05
	3.269722866012285e-04
	1.477334311676432e-04

 138	1.380000000000001e+00
	-1.928984713053464e-16
	2.419861259093885e-18
	-1.599457017887823e-15
	1.707458364710266e-05
	3.285141699359173e-04
	1.510104937222893e-04

 139	1.390000000000001e+00
	-1.916956314778370e-16
	2.289778057251285e-18
	-1.601433342034788e-15
	1.748605009620077e-05
	3.300047390258840e-04
	1.543027131969363e-04

 140	1.400000000000001e+00
	-1.904967762977882e-16
	2.154158063990519e-18
	-1.603385614913209e-15
	1.790325901365011e-05
	3.314450120011748e-04
	1.576095816396691e-04

 141	1.410000000000001e+00
	-1.893017351711170e-16
	2.012756515448243e-18
	-1.605314686639368e-15
	1.832627013249940e-05
	3.328359888436321e-04
	1.609306011882953e-04

 142	1.420000000000001e+00
	-1.881103480461997e-16
	1.865316057396455e-18
	-1.607221343360127e-15
	1.875514520065276e-05
	3.341786513622552e-04
	1.642652838886925e-04

 143	1.430000000000001e+00
	-1.869224647151650e-16
	1.711566101161791e-18
	-1.609106310849693e-15
	1.918994805463920e-05
	3.354739631702590e-04
	1.676131515129189e-04

 144	1.440000000000001e+00
	-1.857379441730088e-16
	1.551222143366738e-18
	-1.610970257804531e-15
	1.963074469411800e-05
	3.367228696679085e-04
	1.709737353771250e-04

 145	1.450000000000001e+00
	-1.845566540304728e-16
	1.383985047866427e-18
	-1.612813798855197e-15
	2.007760335720260e-05
	3.379262980342452e-04
	1.743465761593376e-04

 146	1.460000000000001e+00
	-1.833784699769551e-16
	1.209540288201051e-18
	-1.614637497312524e-15
	2.053059459669001e-05
	3.390851572299911e-04
	1.777312237172222e-04

 147	1.470000000000001e+00
	-1.822032752900329e-16
	1.027557148835864e-18
	-1.616441867664245e-15
	2.098979135728434e-05
	3.402003380132334e-04
	1.811272369059362e-04

 148	1.480000000000001e+00
	-1.810309603884463e-16
	8.376878834184737e-19
	-1.618227377836925e-15
	2.145526905390879e-05
	3.412727129689299e-04
	1.845341833962135e-04

 149	1.490000000000001e+00
	-1.798614224256641e-16
	6.395668282473764e-19
	-1.619994451236903e-15
	2.192710565120143e-05
	3.423031365527962e-04
	1.879516394928187e-04

 150	1.500000000000001e+00
	-1.786945649214142e-16
	4.328094691207884e-19
	-1.621743468582852e-15
	2.240538174429366e-05
	3.432924451497528e-04
	1.913791899535141e-04

 151	1.510000000000001e+00
	-1.775302974287565e-16
	2.170114597190514e-19
	-1.623474769541556e-15
	2.289018064097394e-05
	3.442414571468096e-04
	1.948164278086874e-04

 152	1.520000000000001e+00
	-1.763685352345372e-16
	-8.252410328027971e-21
	-1.625188654177563e-15
	2.338158844534087e-05
	3.451509730200087e-04
	1.982629541817817e-04

 153	1.530000000000001e+00
	-1.752091990912205e-16
	-2.434292995248430e-19
	-1.626885384226460e-15
	2.387969414305308e-05
	3.460217754348590e-04
	2.017183781106635e-04

 154	1.540000000000001e+00
	-1.740522149783041e-16
	-4.889894525488910e-19
	-1.628565184200752e-15
	2.438458968828646e-05
	3.468546293595544e-04
	2.051823163700639e-04

 155	1.550000000000001e+00
	-1.728975138917013e-16
	-7.454273939983153e-19
	-1.630228242336515e-15
	2.489637009251074e-05
	3.476502821901502e-04
	2.086543932952136e-04

 156	1.560000000000001e+00
	-1.717450316596097e-16
	-1.013263179525068e-18
	-1.631874711388337e-15
	2.541513351520121e-05
	3.484094638868002e-04
	2.121342406067875e-04

 157	1.570000000000001e+00
	-1.705947087835589e-16
	-1.293043705926442e-18
	-1.633504709279431e-15
	2.594098135660331e-05
	3.491328871201130e-04
	2.156214972372642e-04

 158	1.580000000000001e+00
	-1.694464903034528e-16
	-1.585344081633199e-18
	-1.635118319613192e-15
	2.647401835267123e-05
	3.498212474266447e-04
	2.191158091587996e-04

 159	1.590000000000001e+00
	-1.683003256855528e-16
	-1.890769058856614e-18
	-1.636715592052037e-15
	2.701435267230244e-05
	3.504752233725509e-04
	2.226168292126953e-04

 160	1.600000000000001e+00
	-1.671561687324644e-16
	-2.209954528446671e-18
	-1.638296542568788e-15
	2.756209601699589e-05
	3.510954767244110e-04
	2.261242169405449e-04

 161	1.610000000000001e+00
	-1.660139775142900e-16
	-2.543569078247156e-18
	-1.639861153575632e-15
	2.811736372306063e-05
	3.516826526262602e-04
	2.296376384171186e-04

 162	1.620000000000001e+00
	-1.648737143202135e-16
	-2.892315615420167e-18
	-1.641409373935179e-15
	2.868027486650762e-05
	3.522373797818916e-04
	2.331567660850481e-04

 163	1.630000000000001e+00
	-1.637353456298556e-16
	-3.256933052835277e-18
	-1.642941118858050e-15
	2.925095237075810e-05
	3.527602706415108e-04
	2.366812785913594e-04

 164	1.640000000000001e+00
	-1.625988421038245e-16
	-3.638198059174574e-18
	-1.644456269691072e-15
	2.982952311730548e-05
	3.532519215918762e-04
	2.402108606258880e-04

 165	1.650000000000001e+00
	-1.614641785929454e-16
	-4.036926871883670e-18
	-1.645954673600136e-15
	3.041611805947053e-05
	3.537129131490842e-04
	2.437452027616130e-04

 166	1.660000000000001e+00
	-1.603313341657012e-16
	-4.453977171496641e-18
	-1.647436143151637e-15
	3.101087233939284e-05
	3.541438101532046e-04
	2.472840012969287e-04

 167	1.670000000000001e+00
	-1.592002921534604e-16
	-4.890250015162000e-18
	-1.648900455796507e-15
	3.161392540840332e-05
	3.545451619640240e-04
	2.508269580998705e-04

 168	1.680000000000001e+00
	-1.580710402131128e-16
	-5.346691826397669e-18
	-1.650347353260840e-15
	3.222542115092653e-05
	3.549175026571810e-04
	2.543737804542990e-04

 169	1.690000000000001e+00
	-1.569435704067161e-16
	-5.824296437188115e-18
	-1.651776540847415e-15
	3.284550801206478e-05
	3.552613512200353e-04
	2.579241809080492e-04

 170	1.700000000000001e+00
	-1.558178792978061e-16
	-6.324107177498341e-18
	-1.653187686652574e-15
	3.347433912901717e-05
	3.555772117466479e-04
	2.614778771230312e-04

 171	1.710000000000001e+00
	-1.546939680639683e-16
	-6.847219006106783e-18
	-1.654580420703377e-15
	3.411207246649135e-05
	3.558655736312951e-04
	2.650345917272763e-04

 172	1.720000000000001e+00
	-1.535718426252769e-16
	-7.394780675342475e-18
	-1.655954334020356e-15
	3.475887095626882e-05
	3.561269117599758e-04
	2.685940521689088e-04

 173	1.730000000000001e+00
	-1.524515137881466e-16
	-7.967996920836125e-18
	-1.657308977611813e-15
	3.541490264108573e-05
	3.563616866994137e-04
	2.721559905720214e-04

 174	1.740000000000001e+00
	-1.513329974040853e-16
	-8.568130665755867e-18
	-1.658643861406293e-15
	3.608034082299569e-05
	3.565703448830921e-04
	2.757201435944253e-04

 175	1.750000000000001e+00
	-1.502163145427618e-16
	-9.196505227182706e-18
	-1.659958453130664e-15
	3.675536421638375e-05
	3.567533187938922e-04
	2.792862522872469e-04

 176	1.760000000000001e+00