Title: **.subckt gm_id_nmos
Date: Tue Jun  1 20:07:27  2021
Plotname: DC transfer characteristic
Flags: real
No. Variables: 7
No. Points: 181
Variables:
	0	v(v-sweep)	voltage
	1	@m.xm1.msky130_fd_pr__nfet_01v8[cgb]	capacitance
	2	@m.xm1.msky130_fd_pr__nfet_01v8[cgd]	capacitance
	3	@m.xm1.msky130_fd_pr__nfet_01v8[cgs]	capacitance
	4	@m.xm1.msky130_fd_pr__nfet_01v8[gds]	admittance
	5	@m.xm1.msky130_fd_pr__nfet_01v8[gm]	admittance
	6	i(@m.xm1.msky130_fd_pr__nfet_01v8[id])	current
Values:
 0	0.000000000000000e+00
	-3.794663635455580e-16
	5.922017570577976e-20
	-4.821791968922638e-18
	1.171284598253324e-13
	2.426094293472705e-12
	9.326278971502852e-14

 1	1.000000000000000e-02
	-3.775943441400648e-16
	6.255773436350447e-20
	-5.118011829353092e-18
	1.511317042577190e-13
	3.146854257730783e-12
	1.209714828548612e-13

 2	2.000000000000000e-02
	-3.757439778703655e-16
	6.609766272580900e-20
	-5.436974764221158e-18
	1.950001781133364e-13
	4.081720441058074e-12
	1.569119574294395e-13

 3	3.000000000000000e-02
	-3.739143435160394e-16
	6.985464589203834e-20
	-5.780678544597821e-18
	2.515940502279469e-13
	5.294284066176281e-12
	2.035294685827980e-13

 4	4.000000000000000e-02
	-3.721045070394916e-16
	7.384430797218777e-20
	-6.151299338815467e-18
	3.246020603119676e-13
	6.867018527089621e-12
	2.639955092427914e-13

 5	5.000000000000000e-02
	-3.703135190022584e-16
	7.808322265992568e-20
	-6.551204688443140e-18
	4.187813231135794e-13
	8.906883740634705e-12
	3.424234417137906e-13

 6	6.000000000000000e-02
	-3.685404119363426e-16
	8.258891848355602e-20
	-6.982967149751256e-18
	5.402664553873975e-13
	1.155259279177596e-11
	4.441481251213133e-13

 7	7.000000000000001e-02
	-3.667841976665975e-16
	8.737987833152185e-20
	-7.449378631221427e-18
	6.969680353174471e-13
	1.498403339081243e-11
	5.760885179789125e-13

 8	8.000000000000000e-02
	-3.650438645801389e-16
	9.247553282717384e-20
	-7.953465458118476e-18
	8.990861679316191e-13
	1.943448233507551e-11
	7.472178573476199e-13

 9	9.000000000000000e-02
	-3.633183748390116e-16
	9.789624709072458e-20
	-8.498504194199158e-18
	1.159772349467094e-12
	2.520643980834354e-11
	9.691733006209326e-13

 10	9.999999999999999e-02
	-3.616066615329972e-16
	1.036633003701570e-19
	-9.088038247708718e-18
	1.495982372089659e-12
	3.269215457319768e-11
	1.257046352931025e-12

 11	1.100000000000000e-01
	-3.599076257706189e-16
	1.097988579427420e-19
	-9.725895283171100e-18
	1.929575295920132e-12
	4.240022720708380e-11
	1.630407626374616e-12

 12	1.200000000000000e-01
	-3.582201337083084e-16
	1.163259345801736e-19
	-1.041620545129566e-17
	2.488729318408285e-12
	5.499008752820836e-11
	2.114635306068178e-12

 13	1.300000000000000e-01
	-3.565430135204445e-16
	1.232683487289672e-19
	-1.116342043564823e-17
	3.209765692931972e-12
	7.131667137106952e-11
	2.742637191323041e-12

 14	1.400000000000000e-01
	-3.548750523167802e-16
	1.306506663803904e-19
	-1.197233329552402e-17
	4.139497972767439e-12
	9.248830585124973e-11
	3.557082705635262e-12

 15	1.500000000000000e-01
	-3.532149930188398e-16
	1.384981333887864e-19
	-1.284809905862181e-17
	5.338257427491251e-12
	1.199416961943718e-10
	4.613295591652965e-12

 16	1.600000000000000e-01
	-3.515615312133238e-16
	1.468365947434642e-19
	-1.379625598347233e-17
	6.883788601718760e-12
	1.555390489614830e-10
	5.983002403864596e-12

 17	1.700000000000000e-01
	-3.499133120086499e-16
	1.556923990093555e-19
	-1.482274736899087e-17
	8.876264352984351e-12
	2.016938404066128e-10
	7.759189316729724e-12

 18	1.800000000000000e-01
	-3.482689269305952e-16
	1.650922858300008e-19
	-1.593394373585373e-17
	1.144474075601170e-11
	2.615336400850818e-10
	1.006239395762243e-11

 19	1.900000000000000e-01
	-3.466269109047144e-16
	1.750632540409060e-19
	-1.713666514061591e-17
	1.475546338437744e-11
	3.391108507830296e-10
	1.304885481284125e-11

 20	2.000000000000000e-01
	-3.449857393869124e-16
	1.856324075830500e-19
	-1.843820330768228e-17
	1.902255327121286e-11
	4.396753824013071e-10
	1.692106448478688e-11

 21	2.100000000000000e-01
	-3.433438257192356e-16
	1.968267760502950e-19
	-1.984634317574021e-17
	2.452175042661336e-11
	5.700273386263966e-10
	2.194143271065446e-11

 22	2.200000000000001e-01
	-3.416995188056308e-16
	2.086731063697022e-19
	-2.136938335366741e-17
	3.160808419268740e-11
	7.389730142512575e-10
	2.844997084933046e-11

 23	2.300000000000001e-01
	-3.400511012219233e-16
	2.211976218234333e-19
	-2.301615486620952e-17
	4.073858441015458e-11
	9.579141990337492e-10
	3.688717462429408e-11

 24	2.400000000000001e-01
	-3.383967878953328e-16
	2.344257444059262e-19
	-2.479603744300391e-17
	5.250145985505579e-11
	1.241609367100497e-09
	4.782362302111307e-11

 25	2.500000000000001e-01
	-3.367347255114397e-16
	2.483817763914211e-19
	-2.671897246492557e-17
	6.765356895724774e-11
	1.609156310027319e-09
	6.199824967510913e-11

 26	2.600000000000001e-01
	-3.350629928292268e-16
	2.630885370284833e-19
	-2.879547153621133e-17
	8.716851546382258e-11
	2.085259788234707e-09
	8.036780592209768e-11

 27	2.700000000000001e-01
	-3.333796021082529e-16
	2.785669504831808e-19
	-3.103661949568105e-17
	1.122983472476396e-10
	2.701865626760171e-09
	1.041707561021435e-10

 28	2.800000000000001e-01
	-3.316825018738939e-16
	2.948355816036022e-19
	-3.345407052685775e-17
	1.446526558970092e-10
	3.500265357367001e-09
	1.350097688631191e-10

 29	2.900000000000001e-01
	-3.299695812665607e-16
	3.119101167994125e-19
	-3.606003587669503e-17
	1.862999127207713e-10
	4.533804223191248e-09
	1.749581471954110e-10

 30	3.000000000000001e-01
	-3.282386762370015e-16
	3.298027883794628e-19
	-3.886726155553493e-17
	2.398971885605121e-10
	5.871361592468022e-09
	2.266970422869207e-10

 31	3.100000000000001e-01
	-3.264875778605479e-16
	3.485217421121474e-19
	-4.188899427614218e-17
	3.088560580241177e-10
	7.601818350896601e-09
	2.936922057995586e-10

 32	3.200000000000001e-01
	-3.247140430463793e-16
	3.680703496077200e-19
	-4.513893380884658e-17
	3.975545658361212e-10
	9.839782762848107e-09
	3.804214550001468e-10

 33	3.300000000000001e-01
	-3.229158079112609e-16
	3.884464693989538e-19
	-4.863116989647611e-17
	5.116077332532802e-10
	1.273291705756127e-08
	4.926670812635916e-10

 34	3.400000000000001e-01
	-3.210906040683141e-16
	4.096416633291243e-19
	-5.238010190190361e-17
	6.582123241947559e-10
	1.647129438412092e-08
	6.378912768774735e-10

 35	3.500000000000001e-01
	-3.192361780476773e-16
	4.316403780340197e-19
	-5.640033946880964e-17
	8.465856126933880e-10
	2.129932283273913e-08
	8.257174690749781e-10

 36	3.600000000000002e-01
	-3.173503140150182e-16
	4.544191048863935e-19
	-6.070658267903758e-17
	1.088522855339648e-09
	2.753090311643396e-08
	1.068546446324208e-09

 37	3.700000000000002e-01
	-3.154308598837355e-16
	4.779455356777333e-19
	-6.531348050329793e-17
	1.399104254139039e-09
	3.556864230824200e-08
	1.382343584076683e-09

 38	3.800000000000002e-01
	-3.134757568258169e-16
	5.021777354203675e-19
	-7.023546677929713e-17
	1.797589591633877e-09
	4.592813027161776e-08
	1.787642597820187e-09

 39	3.900000000000002e-01
	-3.114830720741730e-16
	5.270633577900441e-19
	-7.548657352209468e-17
	2.308547632720653e-09
	5.926849948311755e-08
	2.310822362990667e-09

 40	4.000000000000002e-01
	-3.094510347764027e-16
	5.525389326728436e-19
	-8.108022207930693e-17
	2.963278008506691e-09
	7.643073210944667e-08
	2.985726740908832e-09

 41	4.100000000000002e-01
	-3.073780745084740e-16
	5.785292587599612e-19
	-8.702899348457098e-17
	3.801595784140604e-09
	9.848544633425919e-08
	3.855713311276343e-09

 42	4.200000000000002e-01
	-3.052628618905940e-16
	6.049469368392855e-19
	-9.334438032279099e-17
	4.874063348380721e-09
	1.267921777101553e-07
	4.976235643178505e-09

 43	4.300000000000002e-01
	-3.031043505723081e-16
	6.316920810286939e-19
	-1.000365234752538e-16
	6.244770600640184e-09
	1.630724539344973e-07
	6.418085317749930e-09

 44	4.400000000000002e-01
	-3.009018196773788e-16
	6.586522453419106e-19
	-1.071139382247459e-16
	7.994782393921359e-09
	2.094992158557471e-07
	8.271444209586823e-09

 45	4.500000000000002e-01
	-2.986549156307450e-16
	6.857026013570535e-19
	-1.145832353212427e-16
	1.022639124415479e-08
	2.688053232871437e-07
	1.065092406881711e-08

 46	4.600000000000002e-01
	-2.963636921409233e-16
	7.127063991070322e-19
	-1.224488436772466e-16
	1.306833240561580e-08
	3.444139444701068e-07
	1.370179826556012e-08

 47	4.700000000000003e-01
	-2.940286469935105e-16
	7.395157374570644e-19
	-1.307127423092044e-16
	1.668213587683931e-08
	4.405934871249638e-07
	1.760765804613224e-08

 48	4.800000000000003e-01
	-2.916507542371409e-16
	7.659726621269769e-19
	-1.393742098933855e-16
	2.126980325106540e-08
	5.626392919820093e-07
	2.259975033468704e-08

 49	4.900000000000003e-01
	-2.892314903236515e-16
	7.919105992581582e-19
	-1.484296007863998e-16
	2.708300302557860e-08
	7.170834652096428e-07
	2.896827248802365e-08

 50	5.000000000000002e-01
	-2.867728528088002e-16
	8.171561202929712e-19
	-1.578721565033811e-16
	3.443397125944678e-08
	9.119328552384446e-07
	3.707590680644179e-08

 51	5.100000000000002e-01
	-2.842773703351921e-16
	8.415310203855948e-19
	-1.676918613941206e-16
	4.370827916928330e-08
	1.156933171978505e-06
	4.737386818751933e-08

 52	5.200000000000002e-01
	-2.817481028076608e-16
	8.648546782260753e-19
	-1.778753505714285e-16
	5.537957786689309e-08
	1.463854527657717e-06
	6.042070529948365e-08

 53	5.300000000000002e-01
	-2.791886309310575e-16
	8.869466508069336e-19
	-1.884058770137192e-16
	7.002634436645863e-08
	1.846790246386282e-06
	7.690403184443481e-08

 54	5.400000000000003e-01
	-2.766030346038524e-16
	9.076294431633590e-19
	-1.992633432014164e-16
	8.835052318401142e-08
	2.322456759766685e-06
	9.766526320559740e-08

 55	5.500000000000003e-01
	-2.739958600355881e-16
	9.267313813794755e-19
	-2.104244007017025e-16
	1.111977760497216e-07
	2.910478057540004e-06
	1.237272902925466e-07

 56	5.600000000000003e-01
	-2.713720758647511e-16
	9.440895080409287e-19
	-2.218626188667217e-16
	1.395788128305108e-07
	3.633633969924250e-06
	1.563248357320394e-07

 57	5.700000000000003e-01
	-2.687370189749739e-16
	9.595524135798550e-19
	-2.335487213623232e-16
	1.746909793300981e-07
	4.518048189419616e-06
	1.969370124507504e-07

 58	5.800000000000003e-01
	-2.660963311182896e-16
	9.729829151640285e-19
	-2.454508867245816e-16
	2.179389302274071e-07
	5.593290193718192e-06
	2.473213533264017e-07

 59	5.900000000000003e-01
	-2.634558878304447e-16
	9.842604972407293e-19
	-2.575351066887942e-16
	2.709528378504268e-07
	6.892365900022080e-06
	3.095483232204037e-07

 60	6.000000000000003e-01
	-2.608217214423658e-16
	9.932834345811280e-19
	-2.697655937912040e-16
	3.356022141604600e-07
	8.451575530951699e-06
	3.860350886255150e-07

 61	6.100000000000003e-01
	-2.581999402343256e-16
	9.999705294031634e-19
	-2.821052278388004e-16
	4.140031043229943e-07
	1.031022387818353e-05
	4.795771360762645e-07

 62	6.200000000000003e-01
	-2.555966459304974e-16
	1.004262408311877e-18
	-2.945160293884231e-16
	5.085162094005934e-07
	1.251017725700576e-05
	5.933762263469074e-07

 63	6.300000000000003e-01
	-2.530178517828401e-16
	1.006122341573001e-18
	-3.069596474550928e-16
	6.217334844672960e-07
	1.509527147014822e-05
	7.310631645714178e-07

 64	6.400000000000003e-01
	-2.504694034427235e-16
	1.005536565636184e-18
	-3.193978483273915e-16
	7.564510050518173e-07
	1.811058389239829e-05
	8.967139556009786e-07

 65	6.500000000000004e-01
	-2.479569046712938e-16
	1.002514108761205e-18
	-3.317929926122265e-16
	9.156264496498825e-07
	2.160158801981723e-05
	1.094858075065352e-06

 66	6.600000000000004e-01
	-2.454856497063806e-16
	9.970861379789373e-19
	-3.441084884315409e-16
	1.102320425708172e-06
	2.561320876199991e-05
	1.330477774579022e-06

 67	6.700000000000004e-01
	-2.430605638009486e-16
	9.893048624286172e-19
	-3.563092099837558e-16
	1.319622040601879e-06
	3.018879110299596e-05
	1.608997498380226e-06

 68	6.800000000000004e-01
	-2.406861530955783e-16
	9.792420424966824e-19
	-3.683618723693748e-16
	1.570560504337334e-06
	3.536898528961075e-05
	1.936262569562184e-06

 69	6.900000000000004e-01
	-2.383664646068524e-16
	9.669871655012543e-19
	-3.802353555504914e-16
	1.858006015034478e-06
	4.119054229406599e-05
	2.318506286603656e-06

 70	7.000000000000004e-01
	-2.361050567267657e-16
	9.526453565252830e-19
	-3.919009724455971e-16
	2.184564556384886e-06
	4.768500914738899e-05
	2.762304481126556e-06

 71	7.100000000000004e-01
	-2.339049802556427e-16
	9.363350972630805e-19
	-4.033326783323495e-16
	2.552472352964731e-06
	5.487731990631296e-05
	3.274516504471959e-06

 72	7.200000000000004e-01
	-2.317687696501391e-16
	9.181858265130356e-19
	-4.145072208289497e-16
	2.963496425362477e-06
	6.278429756737032e-05
	3.862211654699740e-06

 73	7.300000000000004e-01
	-2.296984438724682e-16
	8.983354935339356e-19
	-4.254042316530407e-16
	3.418847842878744e-06
	7.141311466000630e-05
	4.532580361692825e-06

 74	7.400000000000004e-01
	-2.276955159865138e-16
	8.769281303547542e-19
	-4.360062630400001e-16
	3.919113823733249e-06
	8.075980068836568e-05
	5.292830124189947e-06

 75	7.500000000000004e-01
	-2.257610104660560e-16
	8.541115018631848e-19
	-4.462987730884366e-16
	4.464213783804227e-06
	9.080792437709494e-05
	6.150067278202545e-06

 76	7.600000000000005e-01
	-2.238954870609008e-16
	8.300348837241822e-19
	-4.562700653614409e-16
	5.053382856335480e-06
	1.015276071029352e-04
	7.111167111943505e-06

 77	7.700000000000005e-01
	-2.220990700056364e-16
	8.048470085194077e-19
	-4.659111888021335e-16
	5.685184434204709e-06
	1.128750309119983e-04
	8.182636462447404e-06

 78	7.800000000000005e-01
	-2.203714813475757e-16
	7.786942105371609e-19
	-4.752158044345025e-16
	6.357551116892811e-06
	1.247925836281112e-04
	9.370474482804572e-06

 79	7.900000000000005e-01
	-2.187120772076944e-16
	7.517187898847358e-19
	-4.841800254439569e-16
	7.067851307199546e-06
	1.372097340193576e-04
	1.068003846818072e-05

 80	8.000000000000005e-01
	-2.171198858623784e-16
	7.240576074571505e-19
	-4.928022371055625e-16
	7.812976837317177e-06
	1.500446576753004e-04
	1.211592221110963e-05

 81	8.100000000000005e-01
	-2.155936466354494e-16
	6.958409140836753e-19
	-5.010829026969142e-16
	8.589445621402201e-06
	1.632065506710753e-04
	1.368185414798131e-05

 82	8.200000000000005e-01
	-2.141318487103505e-16
	6.671914100960921e-19
	-5.090243610448387e-16
	9.393512579141160e-06
	1.765984878579785e-04
	1.538062151850074e-05

 83	8.300000000000005e-01
	-2.127327691033615e-16
	6.382235257263743e-19
	-5.166306207574004e-16
	1.022128200769388e-05
	1.901206199468781e-04
	1.721402499460911e-05

 84	8.400000000000005e-01
	-2.113945091730948e-16
	6.090429081748330e-19
	-5.239071555283845e-16
	1.106881515366516e-05
	2.036734689425452e-04
	1.918286597743570e-05

 85	8.500000000000005e-01
	-2.101150291734008e-16
	5.797460978520737e-19
	-5.308607042085889e-16
	1.193222782095493e-05
	2.171610794823111e-04
	2.128696631914179e-05

 86	8.600000000000005e-01
	-2.088921804815025e-16
	5.504203740950487e-19
	-5.374990786489514e-16
	1.280777425594863e-05
	2.304938122496001e-04
	2.352521792235918e-05

 87	8.700000000000006e-01
	-2.077237352473699e-16
	5.211437494640923e-19
	-5.438309816598847e-16
	1.369191507195562e-05
	2.435906174932743e-04
	2.589565777622854e-05

 88	8.800000000000006e-01
	-2.066074133117988e-16
	4.919850913943586e-19
	-5.498658368181851e-16
	1.458136842271374e-05
	2.563806912885684e-04
	2.839556268615820e-05

 89	8.900000000000006e-01
	-2.055409063282194e-16
	4.630043503476496e-19
	-5.556136313001342e-16
	1.547314486889206e-05
	2.688044835343144e-04
	3.102155731610251e-05

 90	9.000000000000006e-01
	-2.045218990965962e-16
	4.342528745329585e-19
	-5.610847724345498e-16
	1.636456731916010e-05
	2.808140855418738e-04
	3.376972915642240e-05

 91	9.100000000000006e-01
	-2.035480881772315e-16
	4.057737925957905e-19
	-5.662899582554425e-16
	1.725327804306820e-05
	2.923730702760060e-04
	3.663574454850160e-05

 92	9.200000000000006e-01
	-2.026171978986936e-16
	3.776024472825477e-19
	-5.712400619901675e-16
	1.813723506715611e-05
	3.034558871666222e-04
	3.961496078642524e-05

 93	9.300000000000006e-01
	-2.017269939086162e-16
	3.497668648597650e-19
	-5.759460301422006e-16
	1.901470032874544e-05
	3.140469262696122e-04
	4.270253041221473e-05

 94	9.400000000000006e-01
	-2.008752944401566e-16
	3.222882469119142e-19
	-5.804187936128008e-16
	1.988422183805401e-05
	3.241393659008085e-04
	4.589349497547954e-05

 95	9.500000000000006e-01
	-2.000599784792998e-16
	2.951813771912766e-19
	-5.846691978269878e-16
	2.074461313613545e-05
	3.337339250348795e-04
	4.918287270704978e-05

 96	9.600000000000006e-01
	-1.992789971358518e-16
	2.684555147309594e-19
	-5.887079103014490e-16
	2.159492395924821e-05
	3.428374992791008e-04
	5.256570278005278e-05

 97	9.700000000000006e-01
	-1.985303729072356e-16
	2.421142969388466e-19
	-5.925454082930020e-16
	2.243442316479102e-05
	3.514620225749461e-04
	5.603713821894090e-05

 98	9.800000000000006e-01
	-1.978122080331866e-16
	2.161566250068622e-19
	-5.961919052209139e-16
	2.326256840830286e-05
	3.596232307778822e-04
	5.959246507441734e-05

 99	9.900000000000007e-01
	-1.971226861179721e-16
	1.905770262611570e-19
	-5.996573220176540e-16
	2.407898348705124e-05
	3.673396413972741e-04
	6.322714151937170e-05

 100	1.000000000000001e+00
	-1.964600737045364e-16
	1.653660960960528e-19
	-6.029512589055425e-16
	2.488343571882520e-05
	3.746316500596249e-04
	6.693682101590234e-05

 101	1.010000000000001e+00
	-1.958227208613219e-16
	1.405109145050566e-19
	-6.060829741029794e-16
	2.567581505436882e-05
	3.815207675307672e-04
	7.071736715241049e-05

 102	1.020000000000001e+00
	-1.952090609324261e-16
	1.159954353162421e-19
	-6.090613686171752e-16
	2.645611509319579e-05
	3.880289931320069e-04
	7.456486154127581e-05

 103	1.030000000000001e+00
	-1.946176095882345e-16
	9.180084702393892e-20
	-6.118949763336596e-16
	2.722441605651292e-05
	3.941783147005675e-04
	7.847560609535641e-05

 104	1.040000000000001e+00
	-1.940469633000583e-16
	6.790590476063826e-20
	-6.145919586714563e-16
	2.798086968759489e-05
	3.999903218649352e-04
	8.244612088440386e-05

 105	1.050000000000001e+00
	-1.934957973489789e-16
	4.428723348396685e-20
	-6.171601031341297e-16
	2.872568599311318e-05
	4.054859178210058e-04
	8.647313863095467e-05

 106	1.060000000000001e+00
	-1.929628634662978e-16
	2.091960287752689e-20
	-6.196068251488282e-16
	2.945912170292433e-05
	4.106851145246785e-04
	9.055359675484690e-05

 107	1.070000000000001e+00
	-1.924469871909191e-16
	-2.223825206181015e-21
	-6.219391726464501e-16
	3.018147030564217e-05
	4.156068968448248e-04
	9.468462772722447e-05

 108	1.080000000000001e+00
	-1.919470650177416e-16
	-2.517127568491842e-20
	-6.241638328949248e-16
	3.089305350874492e-05
	4.202691424098257e-04
	9.886354835593890e-05

 109	1.090000000000001e+00
	-1.914620614007988e-16
	-4.795216431420784e-20
	-6.262871411534479e-16
	3.159421397160155e-05
	4.246885853721087e-04
	1.030878484989101e-04

 110	1.100000000000001e+00
	-1.909910056654858e-16
	-7.059692550994165e-20
	-6.283150907678898e-16
	3.228530916497898e-05
	4.288808139200110e-04
	1.073551795922660e-04

 111	1.110000000000001e+00
	-1.905329888757340e-16
	-9.313686248226749e-20
	-6.302533443760121e-16
	3.296670621928703e-05
	4.328602929556166e-04
	1.116633432863911e-04

 112	1.120000000000001e+00
	-1.900871606944287e-16
	-1.156040182064545e-19
	-6.321072459355646e-16
	3.363877763453453e-05
	4.366404048488053e-04
	1.160102804047965e-04

 113	1.130000000000001e+00
	-1.896527262686573e-16
	-1.380310657571797e-19
	-6.338818333286667e-16
	3.430189773662755e-05
	4.402335025245541e-04
	1.203940603767073e-04

 114	1.140000000000001e+00
	-1.892289431654890e-16
	-1.604512165594303e-19
	-6.355818513322207e-16
	3.495643977648783e-05
	4.436509703211512e-04
	1.248128712428975e-04

 115	1.150000000000001e+00
	-1.888151183788284e-16
	-1.828981451550285e-19
	-6.372117647766420e-16
	3.560277358000621e-05
	4.469032890672743e-04
	1.292650102938875e-04

 116	1.160000000000001e+00
	-1.884106054234521e-16
	-2.054059291440224e-19
	-6.387757717440410e-16
	3.624126366775301e-05
	4.500001026729087e-04
	1.337488753684834e-04

 117	1.170000000000001e+00
	-1.880148015284802e-16
	-2.280090030312984e-19
	-6.402778166825411e-16
	3.687226777345872e-05
	4.529502842264329e-04
	1.382629568171938e-04

 118	1.180000000000001e+00
	-1.876271449392868e-16
	-2.507421247859874e-19
	-6.417216033357204e-16
	3.749613569947295e-05
	4.557620001548040e-04
	1.428058301179274e-04

 119	1.190000000000001e+00
	-1.872471123340643e-16
	-2.736403540037403e-19
	-6.431106074057274e-16
	3.811320845567187e-05
	4.584427714534938e-04
	1.473761491192797e-04

 120	1.200000000000001e+00
	-1.868742163589393e-16
	-2.967390406459511e-19
	-6.444480888854850e-16
	3.872381763564773e-05
	4.609995313452802e-04
	1.519726398786386e-04

 121	1.210000000000001e+00
	-1.865080032835973e-16
	-3.200738234138508e-19
	-6.457371040099838e-16
	3.932828499051274e-05
	4.634386789984004e-04
	1.565940950573355e-04

 122	1.220000000000001e+00
	-1.861480507777724e-16
	-3.436806368991613e-19
	-6.469805167891329e-16
	3.992692216635612e-05
	4.657661291395994e-04
	1.612393688324715e-04

 123	1.230000000000001e+00
	-1.857939658076613e-16
	-3.675957267333770e-19
	-6.481810100952416e-16
	4.052003057637017e-05
	4.679873575489534e-04
	1.659073722841797e-04

 124	1.240000000000001e+00
	-1.854453826502751e-16
	-3.918556720367239e-19
	-6.493410962871853e-16
	4.110790138298893e-05
	4.701074425319412e-04
	1.705970692175608e-04

 125	1.250000000000001e+00
	-1.851019610229121e-16
	-4.164974145415503e-19
	-6.504631273608182e-16
	4.169081556912257e-05
	4.721311025391548e-04
	1.753074723798486e-04

 126	1.260000000000001e+00
	-1.847633843243001e-16
	-4.415582938366204e-19
	-6.515493046214509e-16
	4.226904408080233e-05
	4.740627301529235e-04
	1.800376400353626e-04

 127	1.270000000000001e+00
	-1.844293579834764e-16
	-4.670760882456127e-19
	-6.526016878793736e-16
	4.284284802632385e-05
	4.759064226890343e-04
	1.847866728631370e-04

 128	1.280000000000001e+00
	-1.840996079121261e-16
	-4.930890609157271e-19
	-6.536222041735837e-16
	4.341247891935939e-05
	4.776660096757339e-04
	1.895537111446852e-04

 129	1.290000000000001e+00
	-1.837738790558669e-16
	-5.196360107517349e-19
	-6.546126560322725e-16
	4.397817895554582e-05
	4.793450774751934e-04
	1.943379322120037e-04

 130	1.300000000000001e+00
	-1.834519340398263e-16
	-5.467563278856623e-19
	-6.555747292812772e-16
	4.454018131379542e-05
	4.809469913077493e-04
	1.991385481285550e-04

 131	1.310000000000001e+00
	-1.831335519037948e-16
	-5.744900534234431e-19
	-6.565100004137787e-16
	4.509871047505746e-05
	4.824749149289431e-04
	2.039548035785130e-04

 132	1.320000000000001e+00
	-1.828185269222356e-16
	-6.028779432576956e-19
	-6.574199435360710e-16
	4.565398255252124e-05
	4.839318281955225e-04
	2.087859739420056e-04

 133	1.330000000000001e+00
	-1.825066675044777e-16
	-6.319615357801036e-19
	-6.583059369053582e-16
	4.620620562831746e-05
	4.853205427405740e-04
	2.136313635363538e-04

 134	1.340000000000001e+00
	-1.821977951705129e-16
	-6.617832233679257e-19
	-6.591692690762737e-16
	4.675558009268454e-05
	4.866437159608808e-04
	2.184903040054364e-04

 135	1.350000000000001e+00
	-1.818917435979279e-16
	-6.923863275572044e-19
	-6.600111446733044e-16
	4.730229898232954e-05
	4.879038635022297e-04
	2.233621528412456e-04

 136	1.360000000000001e+00
	-1.815883577356575e-16
	-7.238151778511620e-19
	-6.608326898064555e-16
	4.784654831536082e-05
	4.891033704112603e-04
	2.282462920234741e-04

 137	1.370000000000001e+00
	-1.812874929803900e-16
	-7.561151941446705e-19
	-6.616349571475487e-16
	4.838850742071226e-05
	4.902445011059758e-04
	2.331421267645742e-04

 138	1.380000000000001e+00
	-1.809890144116450e-16
	-7.893329727773627e-19
	-6.624189306843295e-16
	4.892834926043508e-05
	4.913294083014273e-04
	2.380490843491742e-04

 139	1.390000000000001e+00
	-1.806927960817116e-16
	-8.235163762555596e-19
	-6.631855301692894e-16
	4.946624074361490e-05
	4.923601410125512e-04
	2.429666130580235e-04

 140	1.400000000000001e+00
	-1.803987203568267e-16
	-8.587146267113554e-19
	-6.639356152796848e-16
	5.000234303099006e-05
	4.933386517426889e-04
	2.478941811677993e-04

 141	1.410000000000001e+00
	-1.801066773061553e-16
	-8.949784031917487e-19
	-6.646699895047579e-16
	5.053681182961045e-05
	4.942668029540439e-04
	2.528312760191151e-04

 142	1.420000000000001e+00
	-1.798165641353288e-16
	-9.323599428948681e-19
	-6.653894037756057e-16
	5.106979767709667e-05
	4.951463729051966e-04
	2.577774031459961e-04

 143	1.430000000000001e+00
	-1.795282846614691e-16
	-9.709131464932007e-19
	-6.660945598525557e-16
	5.160144621523714e-05
	4.959790609307161e-04
	2.627320854608696e-04

 144	1.440000000000001e+00
	-1.792417488268138e-16
	-1.010693687704983e-18
	-6.667861134842824e-16
	5.213189845280895e-05
	4.967664922289193e-04
	2.676948624898291e-04

 145	1.450000000000001e+00
	-1.789568722482299e-16
	-1.051759127295773e-18
	-6.674646773522544e-16
	5.266129101762763e-05
	4.975102222157571e-04
	2.726652896535572e-04

 146	1.460000000000001e+00
	-1.786735758000710e-16
	-1.094169031711928e-18
	-6.681308238134539e-16
	5.318975639792635e-05
	4.982117404956634e-04
	2.776429375898208e-04

 147	1.470000000000001e+00
	-1.783917852279910e-16
	-1.137985096566874e-18
	-6.687850874536504e-16
	5.371742317324199e-05
	4.988724744938714e-04
	2.826273915139437e-04

 148	1.480000000000001e+00
	-1.781114307914913e-16
	-1.183271275219266e-18
	-6.694279674628780e-16
	5.424441623504549e-05
	4.994937927890934e-04
	2.876182506140645e-04

 149	1.490000000000001e+00
	-1.778324469331140e-16
	-1.230093912700602e-18
	-6.700599298441155e-16
	5.477085699739929e-05
	5.000770081805557e-04
	2.926151274783637e-04

 150	1.500000000000001e+00
	-1.775547719723412e-16
	-1.278521885266753e-18
	-6.706814094655575e-16
	5.529686359795939e-05
	5.006233805190445e-04
	2.976176475517480e-04

 151	1.510000000000001e+00
	-1.772783478223928e-16
	-1.328626745865575e-18
	-6.712928119662488e-16
	5.582255108966571e-05
	5.011341193278492e-04
	3.026254486197752e-04

 152	1.520000000000001e+00
	-1.770031197282347e-16
	-1.380482875829193e-18
	-6.718945155242881e-16
	5.634803162347875e-05
	5.016103862361701e-04
	3.076381803178221e-04

 153	1.530000000000001e+00
	-1.767290360242340e-16
	-1.434167643116101e-18
	-6.724868724962265e-16
	5.687341462253502e-05
	5.020532972446836e-04
	3.126555036637320e-04

 154	1.540000000000001e+00
	-1.764560479100060e-16
	-1.489761567444610e-18
	-6.730702109357558e-16
	5.739880694809421e-05
	5.024639248404408e-04
	3.176770906123446e-04

 155	1.550000000000001e+00
	-1.761841092431012e-16
	-1.547348492674767e-18
	-6.736448359992700e-16
	5.792431305765618e-05
	5.028432999760964e-04
	3.227026236304800e-04

 156	1.560000000000001e+00
	-1.759131763472815e-16
	-1.607015766811817e-18
	-6.742110312453729e-16
	5.845003515562036e-05
	5.031924139265645e-04
	3.277317952910907e-04

 157	1.570000000000001e+00
	-1.756432078352217e-16
	-1.668854430019132e-18
	-6.747690598349621e-16
	5.897607333685586e-05
	5.035122200345689e-04
	3.327643078854087e-04

 158	1.580000000000001e+00
	-1.753741644445650e-16
	-1.732959411043788e-18
	-6.753191656380521e-16
	5.950252572354328e-05
	5.038036353551040e-04
	3.377998730520338e-04

 159	1.590000000000001e+00
	-1.751060088863372e-16
	-1.799429732472070e-18
	-6.758615742530784e-16
	6.002948859563818e-05
	5.040675422076210e-04
	3.428382114219922e-04

 160	1.600000000000001e+00
	-1.748387057047948e-16
	-1.868368725246072e-18
	-6.763964939440558e-16
	6.055705651529822e-05
	5.043047896436761e-04
	3.478790522788871e-04

 161	1.610000000000001e+00
	-1.745722211478659e-16
	-1.939884252885933e-18
	-6.769241165005364e-16
	6.108532244560242e-05
	5.045161948368420e-04
	3.529221332333281e-04

 162	1.620000000000001e+00
	-1.743065230473918e-16
	-2.014088945874099e-18
	-6.774446180250004e-16
	6.161437786387930e-05
	5.047025444009134e-04
	3.579671999108927e-04

 163	1.630000000000001e+00
	-1.740415807084499e-16
	-2.091100446669697e-18
	-6.779581596519609e-16
	6.214431286994888e-05
	5.048645956417337e-04
	3.630140056529294e-04

 164	1.640000000000001e+00
	-1.737773648070878e-16
	-2.171041665831366e-18
	-6.784648882027456e-16
	6.267521628957050e-05
	5.050030777473764e-04
	3.680623112295687e-04

 165	1.650000000000001e+00
	-1.735138472958597e-16
	-2.254041049734768e-18
	-6.789649367796252e-16
	6.320717577337489e-05
	5.051186929209008e-04
	3.731118845643359e-04

 166	1.660000000000001e+00
	-1.732510013165918e-16
	-2.340232860379088e-18
	-6.794584253026904e-16
	6.374027789154817e-05
	5.052121174594674e-04
	3.781625004698245e-04

 167	1.670000000000001e+00
	-1.729888011198646e-16
	-2.429757467780972e-18
	-6.799454609926071e-16
	6.427460822452064e-05
	5.052840027832000e-04
	3.832139403939001e-04

 168	1.680000000000001e+00
	-1.727272219907326e-16
	-2.522761655457136e-18
	-6.804261388021348e-16
	6.481025144990286e-05
	5.053349764168488e-04
	3.882659921759513e-04

 169	1.690000000000001e+00
	-1.724662401802427e-16
	-2.619398939496823e-18
	-6.809005417990893e-16
	6.534729142589977e-05
	5.053656429270321e-04
	3.933184498127333e-04

 170	1.700000000000001e+00
	-1.722058328423546e-16
	-2.719829901721924e-18
	-6.813687415031860e-16
	6.588581127142025e-05
	5.053765848175657e-04
	3.983711132333672e-04

 171	1.710000000000001e+00
	-1.719459779758941e-16
	-2.824222537424996e-18
	-6.818307981790374e-16
	6.642589344309131e-05
	5.053683633851871e-04
	4.034237880830949e-04

 172	1.720000000000001e+00
	-1.716866543712084e-16
	-2.932752618164114e-18
	-6.822867610873731e-16
	6.696761980937271e-05
	5.053415195377642e-04
	4.084762855153918e-04

 173	1.730000000000001e+00
	-1.714278415612171e-16
	-3.045604070077763e-18
	-6.827366686963992e-16
	6.751107172196013e-05
	5.052965745769469e-04
	4.135284219920871e-04

 174	1.740000000000001e+00
	-1.711695197765861e-16
	-3.162969368159307e-18
	-6.831805488550523e-16
	6.805633008465386e-05
	5.052340309470279e-04
	4.185800190911372e-04

 175	1.750000000000001e+00
	-1.709116699047711e-16
	-3.285049946903661e-18
	-6.836184189297693e-16
	6.860347541986138e-05
	5.051543729516951e-04