Title: **.subckt gm_id_nmos
Date: Tue Jun  1 20:10:33  2021
Plotname: DC transfer characteristic
Flags: real
No. Variables: 7
No. Points: 181
Variables:
	0	v(v-sweep)	voltage
	1	@m.xm1.msky130_fd_pr__nfet_01v8[cgb]	capacitance
	2	@m.xm1.msky130_fd_pr__nfet_01v8[cgd]	capacitance
	3	@m.xm1.msky130_fd_pr__nfet_01v8[cgs]	capacitance
	4	@m.xm1.msky130_fd_pr__nfet_01v8[gds]	admittance
	5	@m.xm1.msky130_fd_pr__nfet_01v8[gm]	admittance
	6	i(@m.xm1.msky130_fd_pr__nfet_01v8[id])	current
Values:
 0	0.000000000000000e+00
	-8.949643023640091e-16
	1.107816266222269e-19
	-2.642889182271885e-17
	3.001503435927582e-14
	2.452113326294682e-12
	9.281250320020572e-14

 1	1.000000000000000e-02
	-8.889843439092126e-16
	1.190718730752803e-19
	-2.829801826980385e-17
	3.906953623505257e-14
	3.193480845651282e-12
	1.208774953186578e-13

 2	2.000000000000000e-02
	-8.830695647524088e-16
	1.280936285192065e-19
	-3.033148720059787e-17
	5.085483010460047e-14
	4.158930756311629e-12
	1.574273310694553e-13

 3	3.000000000000000e-02
	-8.772136346435260e-16
	1.379180752522722e-19
	-3.254514734368543e-17
	6.619420257839145e-14
	5.416163470698196e-12
	2.050264674172959e-13

 4	4.000000000000000e-02
	-8.714100277929488e-16
	1.486229092743174e-19
	-3.495628890520114e-17
	8.615899947301053e-14
	7.053318834950117e-12
	2.670140776777936e-13

 5	5.000000000000000e-02
	-8.656519973528091e-16
	1.602928218368531e-19
	-3.758374946604739e-17
	1.121432957980676e-13
	9.185140012704192e-12
	3.477379147756830e-13

 6	6.000000000000000e-02
	-8.599325497880984e-16
	1.730199972256786e-19
	-4.044802341085337e-17
	1.459610083091829e-13
	1.196099281403186e-11
	4.528586850191680e-13

 7	7.000000000000001e-02
	-8.542444193703554e-16
	1.869046226068159e-19
	-4.357137397366325e-17
	1.899721792961601e-13
	1.557529735322724e-11
	5.897461500135262e-13

 8	8.000000000000000e-02
	-8.485800431006873e-16
	2.020554042992773e-19
	-4.697794666526407e-17
	2.472471696344425e-13
	2.028109526571227e-11
	7.679945389236024e-13

 9	9.000000000000000e-02
	-8.429315364562159e-16
	2.185900830823305e-19
	-5.069388246438622e-17
	3.217801046636721e-13
	2.640769136645442e-11
	1.000093117305469e-12

 10	9.999999999999999e-02
	-8.372906704550420e-16
	2.366359390790947e-19
	-5.474742870518927e-17
	4.187662932002596e-13
	3.438358801968349e-11
	1.302298484362164e-12

 11	1.100000000000000e-01
	-8.316488506493087e-16
	2.563302743711968e-19
	-5.916904507410116e-17
	5.449627134378048e-13
	4.476629217450573e-11
	1.695769083979019e-12

 12	1.200000000000000e-01
	-8.259970987832124e-16
	2.778208587946404e-19
	-6.399150154131589e-17
	7.091563197719613e-13
	5.828104284122793e-11
	2.208040453533799e-12

 13	1.300000000000000e-01
	-8.203260379907148e-16
	3.012663213682610e-19
	-6.924996440120862e-17
	9.227722442933211e-13
	7.587111128488332e-11
	2.874943105993637e-12

 14	1.400000000000000e-01
	-8.146258825530240e-16
	3.268364665619357e-19
	-7.498206589255678e-17
	1.200663423442923e-12
	9.876310644851351e-11
	3.743095199422805e-12

 15	1.500000000000000e-01
	-8.088864333836936e-16
	3.547124912013765e-19
	-8.122795213110282e-17
	1.562135384888110e-12
	1.285517238746049e-10
	4.873141289907633e-12

 16	1.600000000000000e-01
	-8.030970805528606e-16
	3.850870743449721e-19
	-8.803030333899451e-17
	2.032275661147235e-12
	1.673096709393696e-10
	6.343959048156197e-12

 17	1.700000000000000e-01
	-7.972468142934201e-16
	4.181643091117052e-19
	-9.543431963209802e-17
	2.643677545579955e-12
	2.177301646576140e-10
	8.258121119433153e-12

 18	1.800000000000000e-01
	-7.913242460399863e-16
	4.541594423849252e-19
	-1.034876649700474e-16
	3.438673928495142e-12
	2.833115316431058e-10
	1.074898349566163e-11

 19	1.900000000000000e-01
	-7.853176411248140e-16
	4.932983858076725e-19
	-1.122403613381895e-16
	4.472230330723014e-12
	3.685961696968274e-10
	1.398988015611823e-11

 20	2.000000000000000e-01
	-7.792149647792210e-16
	5.358169598026679e-19
	-1.217446248762785e-16
	5.815688979102679e-12
	4.794796149064391e-10
	1.820604304593280e-11

 21	2.100000000000000e-01
	-7.730039430499389e-16
	5.819598318104550e-19
	-1.320546355645742e-16
	7.561610328647402e-12
	6.236098927001477e-10
	2.369004518863808e-11

 22	2.200000000000001e-01
	-7.666721401224104e-16
	6.319791108817269e-19
	-1.432262322971504e-16
	9.830027914323765e-12
	8.109029563129875e-10
	3.082179353325923e-11

 23	2.300000000000001e-01
	-7.602070533326462e-16
	6.861325635246719e-19
	-1.553165257880998e-16
	1.277652060953383e-11
	1.054207123910216e-09
	4.009439033692772e-11

 24	2.400000000000001e-01
	-7.535962268325952e-16
	7.446814206427420e-19
	-1.683834228437855e-16
	1.660261791427717e-11
	1.370158367804619e-09
	5.214755401817188e-11

 25	2.500000000000001e-01
	-7.468273844457292e-16
	8.078877527031448e-19
	-1.824850571349714e-16
	2.156919438197863e-11
	1.780279502243905e-09
	6.781076284017723e-11

 26	2.600000000000001e-01
	-7.398885816961095e-16
	8.760114003297423e-19
	-1.976791237995273e-16
	2.801368539032142e-11
	2.312390246784652e-09
	8.815888241155367e-11

 27	2.700000000000001e-01
	-7.327683763307660e-16
	9.493064601466542e-19
	-2.140221179581771e-16
	3.637217595697453e-11
	3.002412363416553e-09
	1.145837908652363e-10

 28	2.800000000000001e-01
	-7.254560158789825e-16
	1.028017341093450e-18
	-2.315684805734551e-16
	4.720768616619177e-11
	3.896675193926947e-09
	1.488864596808826e-10

 29	2.900000000000001e-01
	-7.179416399301728e-16
	1.112374424183596e-18
	-2.503696589341445e-16
	6.124631101558996e-11
	5.054852618367110e-09
	1.933951257636848e-10

 30	3.000000000000001e-01
	-7.102164938898429e-16
	1.202589378395518e-18
	-2.704730933186075e-16
	7.942327994092155e-11
	6.553693389711644e-09
	2.511166506295337e-10

 31	3.100000000000001e-01
	-7.022731500301788e-16
	1.298850206377202e-18
	-2.919211459288194e-16
	1.029414930782954e-10
	8.491743615078310e-09
	3.259299610250147e-10

 32	3.200000000000001e-01
	-6.941057307356524e-16
	1.401316115015453e-18
	-3.147499927973625e-16
	1.333456781703769e-10
	1.099530339577607e-08
	4.228326636797645e-10

 33	3.300000000000001e-01
	-6.857101280097296e-16
	1.510112326575971e-18
	-3.389885038144830e-16
	1.726160029981951e-10
	1.422590967918595e-08
	5.482545914549128e-10

 34	3.400000000000001e-01
	-6.770842126157556e-16
	1.625324964810093e-18
	-3.646571400307237e-16
	2.232857792278487e-10
	1.838969433273632e-08
	7.104552377335961e-10

 35	3.500000000000001e-01
	-6.682280257338173e-16
	1.746996165811471e-18
	-3.917669006738720e-16
	2.885888053661910e-10
	2.374903012669466e-08
	9.200258389522618e-10

 36	3.600000000000002e-01
	-6.591439457825944e-16
	1.875119574148608e-18
	-4.203183545878438e-16
	3.726429125243703e-10
	3.063694719978421e-08
	1.190521336571544e-09

 37	3.700000000000002e-01
	-6.498368231291109e-16
	2.009636389653096e-18
	-4.503007917890300e-16
	4.806773807802353e-10
	3.947487799973697e-08
	1.539252648274320e-09

 38	3.800000000000002e-01
	-6.403140758248498e-16
	2.150432128169648e-18
	-4.816915303209332e-16
	6.193130589660391e-10
	5.079436916355918e-08
	1.988275656265303e-09

 39	3.900000000000002e-01
	-6.305857402806810e-16
	2.297334249852697e-18
	-5.144554114190967e-16
	7.969052085150108e-10
	6.526348479390504e-08
	2.565620129895674e-09

 40	4.000000000000002e-01
	-6.206644719207965e-16
	2.450110790910034e-18
	-5.485445121116213e-16
	1.023960255968864e-09
	8.371871971937178e-08
	3.306809506279566e-09

 41	4.100000000000002e-01
	-6.105654923089770e-16
	2.608470109228308e-18
	-5.838980988201449e-16
	1.313638730077632e-09
	1.072033501180422e-07
	4.256731166020224e-09

 42	4.200000000000002e-01
	-6.003064809663885e-16
	2.772061821765487e-18
	-6.204428384475075e-16
	1.682357637294872e-09
	1.370132848599121e-07
	5.471926764925539e-09

 43	4.300000000000002e-01
	-5.899074120237598e-16
	2.940478973197468e-18
	-6.580932751127428e-16
	2.150506373661373e-09
	1.747516645093232e-07
	7.023383683529287e-09

 44	4.400000000000002e-01
	-5.793903378785393e-16
	3.113261432767584e-18
	-6.967525714939020e-16
	2.743290991713490e-09
	2.223937148441751e-07
	8.999922347696339e-09

 45	4.500000000000002e-01
	-5.687791240528986e-16
	3.289900471713752e-18
	-7.363135041215644e-16
	3.491722274715251e-09
	2.823637316353309e-07
	1.151229098598472e-08

 46	4.600000000000002e-01
	-5.580991413590960e-16
	3.469844429391706e-18
	-7.766596924395614e-16
	4.433763644279011e-09
	3.576265812709686e-07
	1.469810057414326e-08

 47	4.700000000000003e-01
	-5.473769231653440e-16
	3.652505334720204e-18
	-8.176670325418649e-16
	5.615655366510895e-09
	4.517967479751751e-07
	1.872775969141646e-08

 48	4.800000000000003e-01
	-5.366397969196320e-16
	3.837266313198760e-18
	-8.592052987114677e-16
	7.093431475956405e-09
	5.692686786660596e-07
	2.381160291289643e-08

 49	4.900000000000003e-01
	-5.259155000517697e-16
	4.023489580562566e-18
	-9.011398696715486e-16
	8.934644415793551e-09
	7.153727900840369e-07
	3.020844714592307e-08

 50	5.000000000000002e-01
	-5.152317908813917e-16
	4.210524803779809e-18
	-9.433335321596498e-16
	1.122030784324672e-08
	8.965616527828789e-07
	3.823585530494619e-08

 51	5.100000000000002e-01
	-5.046160651877107e-16
	4.397717599625021e-18
	-9.856483122748189e-16
	1.404705747448071e-08
	1.120629974182824e-06
	4.828242857216711e-08

 52	5.200000000000002e-01
	-4.940949886525281e-16
	4.584417940896079e-18
	-1.027947285109612e-15
	1.752950917100625e-08
	1.396969273024485e-06
	6.082247296675158e-08

 53	5.300000000000002e-01
	-4.836941545088706e-16
	4.769988250222904e-18
	-1.070096315401356e-15
	2.180275795261760e-08
	1.736852665688821e-06
	7.643337015572534e-08

 54	5.400000000000003e-01
	-4.734377744775057e-16
	4.953810980454840e-18
	-1.111965686123048e-15
	2.702490716225691e-08
	2.153736212464725e-06
	9.581589489959564e-08

 55	5.500000000000003e-01
	-4.633484095368900e-16
	5.135295507379187e-18
	-1.153431577770408e-15
	3.337944242260533e-08
	2.663550602624838e-06
	1.198175255713914e-07

 56	5.600000000000003e-01
	-4.534467453466208e-16
	5.313884193174413e-18
	-1.194377368187647e-15
	4.107717495551527e-08
	3.284941470493296e-06
	1.494584561380947e-07

 57	5.700000000000003e-01
	-4.437514153327675e-16
	5.489057515456826e-18
	-1.234694730660147e-15
	5.035738641330399e-08
	4.039400728572010e-06
	1.859595202794651e-07

 58	5.800000000000003e-01
	-4.342788726456930e-16
	5.660338194875895e-18
	-1.274284516220723e-15
	6.148773515486526e-08
	4.951219007345596e-06
	2.307705956284139e-07

 59	5.900000000000003e-01
	-4.250433105070917e-16
	5.827294291882750e-18
	-1.313057414223119e-15
	7.476246150300614e-08
	6.047185777394827e-06
	2.855973298569285e-07

 60	6.000000000000003e-01
	-4.160566289479279e-16
	5.989541278695933e-18
	-1.350934392836719e-15
	9.049848700640188e-08
	7.355974094874619e-06
	3.524233345665996e-07

 61	6.100000000000003e-01
	-4.073284446586567e-16
	6.146743124108068e-18
	-1.387846927888313e-15
	1.090291604960583e-07
	8.907174386636812e-06
	4.335244849936258e-07

 62	6.200000000000003e-01
	-3.988661396629683e-16
	6.298612455510299e-18
	-1.423737034185028e-15
	1.306956616637504e-07
	1.072998579740768e-05
	5.314718158471719e-07

 63	6.300000000000003e-01
	-3.906749438014779e-16
	6.444909883671537e-18
	-1.458557117953639e-15
	1.558364031614793e-07
	1.285162903857021e-05
	6.491198600520481e-07

 64	6.400000000000003e-01
	-3.827580455690542e-16
	6.585442591124780e-18
	-1.492269672270412e-15
	1.847751198559126e-07
	1.529560152949366e-05
	7.895782047137011e-07

 65	6.500000000000004e-01
	-3.751167256701080e-16
	6.720062294576691e-18
	-1.524846839356299e-15
	2.178086270972438e-07
	1.807994144755418e-05
	9.561654902262497e-07

 66	6.600000000000004e-01
	-3.677505077097668e-16
	6.848662695968526e-18
	-1.556269864463606e-15
	2.551953982821917e-07
	2.121569031853575e-05
	1.152346882820525e-06

 67	6.700000000000004e-01
	-3.606573206873031e-16
	6.971176536299332e-18
	-1.586528465918732e-15
	2.971461070488863e-07
	2.470573640565978e-05
	1.381657937181272e-06

 68	6.800000000000004e-01
	-3.538336683593740e-16
	7.087572361847894e-18
	-1.615620144879401e-15
	3.438170899525669e-07
	2.854418254982840e-05
	1.647619419731175e-06

 69	6.900000000000004e-01
	-3.472748010518470e-16
	7.197851104840696e-18
	-1.643549456695981e-15
	3.953073423882012e-07
	3.271631873642188e-05
	1.953648799026803e-06

 70	7.000000000000004e-01
	-3.409748860798299e-16
	7.302042570756539e-18
	-1.670327263618380e-15
	4.516592290561698e-07
	3.719920363790839e-05
	2.302974536809150e-06

 71	7.100000000000004e-01
	-3.349271735495412e-16
	7.400201913138349e-18
	-1.695969986135187e-15
	5.128626521756045e-07
	4.196278522021832e-05
	2.698558977283326e-06

 72	7.200000000000004e-01
	-3.291241549320096e-16
	7.492406164717940e-18
	-1.720498867624530e-15
	5.788620530243918e-07
	4.697143135354860e-05
	3.143034620179232e-06

 73	7.300000000000004e-01
	-3.235577123923415e-16
	7.578750881463216e-18
	-1.743939264367818e-15
	6.495653798078691e-07
	5.218570599924470e-05
	3.638657073594270e-06

 74	7.400000000000004e-01
	-3.182192574107775e-16
	7.659346944323998e-18
	-1.766319970433087e-15
	7.248540599470880e-07
	5.756421787163265e-05
	4.187276272945706e-06

 75	7.500000000000004e-01
	-3.130998577299643e-16
	7.734317552359625e-18
	-1.787672584554582e-15
	8.045930585978627e-07
	6.306538384989223e-05
	4.790325880431221e-06

 76	7.600000000000005e-01
	-3.081903520990472e-16
	7.803795430841315e-18
	-1.808030923974643e-15
	8.886402549822504e-07
	6.864898224266212e-05
	5.448829355116908e-06

 77	7.700000000000005e-01
	-3.034814526560107e-16
	7.867920268999666e-18
	-1.827430488307163e-15
	9.768545797481855e-07
	7.427741295470935e-05
	6.163420140498981e-06

 78	7.800000000000005e-01
	-2.989638350952720e-16
	7.926836394410127e-18
	-1.845907974844822e-15
	1.069102585932918e-06
	7.991662468527883e-05
	6.934372804352566e-06

 79	7.900000000000005e-01
	-2.946282170107892e-16
	7.980690684585810e-18
	-1.863500845365965e-15
	1.165263337572612e-06
	8.553670731491770e-05
	7.761641763382448e-06

 80	8.000000000000005e-01
	-2.904654249906522e-16
	8.029630711132584e-18
	-1.880246943391066e-15
	1.265231670623058e-06
	9.111217687179061e-05
	8.644904361267318e-06

 81	8.100000000000005e-01
	-2.864664511733201e-16
	8.073803107733268e-18
	-1.896184159974657e-15
	1.368920000581971e-06
	9.662199956018237e-05
	9.583605446618443e-06

 82	8.200000000000005e-01
	-2.826225000649818e-16
	8.113352150158115e-18
	-1.911350145473356e-15
	1.476258920466156e-06
	1.020494108099725e-04
	1.057700111708873e-05

 83	8.300000000000005e-01
	-2.789250264688011e-16
	8.148418534324498e-18
	-1.925782064276704e-15
	1.587196858930066e-06
	1.073815868713529e-04
	1.162419986902697e-05

 84	8.400000000000005e-01
	-2.753657653967453e-16
	8.179138337023913e-18
	-1.939516389198381e-15
	1.701699061998762e-06
	1.126092223497875e-04
	1.272419995048804e-05

 85	8.500000000000005e-01
	-2.719367548294968e-16
	8.205642143172609e-18
	-1.952588732073103e-15
	1.819746134329434e-06
	1.177260594646662e-04
	1.387592221334894e-05

 86	8.600000000000005e-01
	-2.686303521653034e-16
	8.228054323205119e-18
	-1.965033707064183e-15
	1.941332337013442e-06
	1.227284056108852e-04
	1.507823817274409e-05

 87	8.700000000000006e-01
	-2.654392451595171e-16
	8.246492444409090e-18
	-1.976884823234548e-15
	2.066463796384626e-06
	1.276146664276685e-04
	1.632999330060388e-05

 88	8.800000000000006e-01
	-2.623564581073066e-16
	8.261066800497092e-18
	-1.988174403049394e-15
	2.195156737420638e-06
	1.323849129730456e-04
	1.763002580815817e-05

 89	8.900000000000006e-01
	-2.593753539661701e-16
	8.271880044443803e-18
	-1.998933523643507e-15
	2.327435819274605e-06
	1.370404942855798e-04
	1.897718132043641e-05

 90	9.000000000000006e-01
	-2.564896330554390e-16
	8.279026910511808e-18
	-2.009191977885230e-15
	2.463332620727861e-06
	1.415837007853450e-04
	2.037032392818617e-05

 91	9.100000000000006e-01
	-2.536933289092170e-16
	8.282594012387041e-18
	-2.018978252489423e-15
	2.602884300188362e-06
	1.460174796013829e-04
	2.180834413413470e-05

 92	9.200000000000006e-01
	-2.509807998689586e-16
	8.282659742438532e-18
	-2.028319528376472e-15
	2.746132524213275e-06
	1.503452032998851e-04
	2.329016539850478e-05

 93	9.300000000000006e-01
	-2.483467285436791e-16
	8.279294037871252e-18
	-2.037241654237272e-15
	2.893122140424078e-06
	1.545704672865481e-04
	2.481474260944787e-05

 94	9.400000000000006e-01
	-2.457861001349590e-16
	8.272558564820703e-18
	-2.045769209385328e-15
	3.043900886411325e-06
	1.586969632496921e-04
	2.638107078954387e-05

 95	9.500000000000006e-01
	-2.432941995025373e-16
	8.262506559611958e-18
	-2.053925494857112e-15
	3.198518375956439e-06
	1.627283527623651e-04
	2.798818060719650e-05

 96	9.600000000000006e-01
	-2.408665973839429e-16
	8.249182886366303e-18
	-2.061732571872741e-15
	3.357025655076222e-06
	1.666681887625492e-04
	2.963513886461199e-05

 97	9.700000000000006e-01
	-2.384991380852393e-16
	8.232624075741727e-18
	-2.069211297402005e-15
	3.519474784084147e-06
	1.705198582545690e-04
	3.132104710587377e-05

 98	9.800000000000006e-01
	-2.361879268357692e-16
	8.212858376904520e-18
	-2.076381363834847e-15
	3.685918516082292e-06
	1.742865450997761e-04
	3.304503975630622e-05

 99	9.900000000000007e-01
	-2.339293169916245e-16
	8.189905817315670e-18
	-2.083261341689307e-15
	3.856410055927415e-06
	1.779712087145984e-04
	3.480628197260841e-05

 100	1.000000000000001e+00
	-2.317198972411919e-16
	8.163778265604205e-18
	-2.089868724442031e-15
	4.031002885486538e-06
	1.815765750749177e-04
	3.660396734432889e-05

 101	1.010000000000001e+00
	-2.295564789384851e-16
	8.134479493416664e-18
	-2.096219974703231e-15
	4.209750642869392e-06
	1.851051369916353e-04
	3.843731555409725e-05

 102	1.020000000000001e+00
	-2.274360836658369e-16
	8.102005232678625e-18
	-2.102330571079951e-15
	4.392707045155302e-06
	1.885591611478973e-04
	4.030557007634359e-05

 103	1.030000000000001e+00
	-2.253559311065266e-16
	8.066343225185058e-18
	-2.108215055179800e-15
	4.579925845836360e-06
	1.919406998601264e-04
	4.220799597156162e-05

 104	1.040000000000001e+00
	-2.233134272898623e-16
	8.027473261856554e-18
	-2.113887078302493e-15
	4.771460819727399e-06
	1.952516059370628e-04
	4.414387781488744e-05

 105	1.050000000000001e+00
	-2.213061532557468e-16
	7.985367209359638e-18
	-2.119359447449976e-15
	4.967365769434313e-06
	1.984935493633671e-04
	4.611251778334023e-05

 106	1.060000000000001e+00
	-2.193318541726553e-16
	7.939989022100176e-18
	-2.124644170358316e-15
	5.167694548618073e-06
	2.016680348300322e-04
	4.811323391484145e-05

 107	1.070000000000001e+00
	-2.173884289318433e-16
	7.891294737859589e-18
	-2.129752499317347e-15
	5.372501098261130e-06
	2.047764193780813e-04
	5.014535854363503e-05

 108	1.080000000000001e+00
	-2.154739202313899e-16
	7.839232455563189e-18
	-2.134694973597688e-15
	5.581839492944570e-06
	2.078199296206331e-04
	5.220823691040722e-05

 109	1.090000000000001e+00
	-2.135865051560180e-16
	7.783742293848867e-18
	-2.139481460350877e-15
	5.795763994804791e-06
	2.107996781676720e-04
	5.430122594089483e-05

 110	1.100000000000001e+00
	-2.117244862523611e-16
	7.724756329248984e-18
	-2.144121193887192e-15
	6.014329113372675e-06
	2.137166790036571e-04
	5.642369318366437e-05

 111	1.110000000000001e+00
	-2.098862830942728e-16
	7.662198512911799e-18
	-2.148622813268605e-15
	6.237589669927969e-06
	2.165718616659595e-04
	5.857501589575859e-05

 112	1.120000000000001e+00
	-2.080704243287632e-16
	7.595984564874104e-18
	-2.152994398181636e-15
	6.465600865342792e-06
	2.193660841469480e-04
	6.075458026377685e-05

 113	1.130000000000001e+00
	-2.062755401899450e-16
	7.526021844957416e-18
	-2.157243503077635e-15
	6.698418350657770e-06
	2.221001444986305e-04
	6.296178074748208e-05

 114	1.140000000000001e+00
	-2.045003554660046e-16
	7.452209199399112e-18
	-2.161377189586506e-15
	6.936098299843786e-06
	2.247747911597580e-04
	6.519601953302724e-05

 115	1.150000000000001e+00
	-2.027436829023892e-16
	7.374436782349113e-18
	-2.165402057225084e-15
	7.178697484365821e-06
	2.273907320543395e-04
	6.745670608325676e-05

 116	1.160000000000001e+00
	-2.010044170231836e-16
	7.292585851364739e-18
	-2.169324272433248e-15
	7.426273349288771e-06
	2.299486425301164e-04
	6.974325677312117e-05

 117	1.170000000000001e+00
	-1.992815283518144e-16
	7.206528536023720e-18
	-2.173149595980425e-15
	7.678884090760341e-06
	2.324491722178798e-04
	7.205509459900490e-05

 118	1.180000000000001e+00
	-1.975740580117864e-16
	7.116127578748024e-18
	-2.176883408792221e-15
	7.936588734776708e-06
	2.348929508992756e-04
	7.439164895160940e-05

 119	1.190000000000001e+00
	-1.958811126879715e-16
	7.021236046892712e-18
	-2.180530736252444e-15
	8.199447217189626e-06
	2.372805934733098e-04
	7.675235544293205e-05

 120	1.200000000000001e+00
	-1.942018599291172e-16
	6.921697015104926e-18
	-2.184096271039355e-15
	8.467520464950889e-06
	2.396127041112760e-04
	7.913665577876924e-05

 121	1.210000000000001e+00
	-1.925355237724474e-16
	6.817343216897829e-18
	-2.187584394557653e-15
	8.740870478619691e-06
	2.418898796871435e-04
	8.154399766907703e-05

 122	1.220000000000001e+00
	-1.908813806717188e-16
	6.707996664317756e-18
	-2.190999197028948e-15
	9.019560416176565e-06
	2.441127125662465e-04
	8.397383476935611e-05

 123	1.230000000000001e+00
	-1.892387557106147e-16
	6.593468234506931e-18
	-2.194344496304032e-15
	9.303654678202280e-06
	2.462817928299334e-04
	8.642562664703868e-05

 124	1.240000000000001e+00
	-1.876070190839933e-16
	6.473557221880620e-18
	-2.197623855459969e-15
	9.593218994489736e-06
	2.483977100081120e-04
	8.889883876760584e-05

 125	1.250000000000001e+00
	-1.859855828302204e-16
	6.348050854550275e-18
	-2.200840599244208e-15
	9.888320512162838e-06
	2.504610543855955e-04
	9.139294249584380e-05

 126	1.260000000000001e+00
	-1.843738977985325e-16
	6.216723773528262e-18
	-2.203997829426655e-15
	1.018902788538141e-05
	2.524724179421225e-04
	9.390741510828612e-05

 127	1.270000000000001e+00
	-1.827714508361769e-16
	6.079337473150593e-18
	-2.207098439118863e-15
	1.049541136671427e-05
	2.544323949799964e-04
	9.644173981345207e-05

 128	1.280000000000001e+00
	-1.811777621808114e-16
	5.935639701049657e-18
	-2.210145126117692e-15
	1.080754290026475e-05
	2.563415824876015e-04
	9.899540577700363e-05

 129	1.290000000000001e+00
	-1.795923830444724e-16
	5.785363815900119e-18
	-2.213140405328523e-15
	1.112549621663546e-05
	2.582005802816903e-04
	1.015679081494008e-04

 130	1.300000000000001e+00
	-1.780148933761722e-16
	5.628228101049415e-18
	-2.216086620320819e-15
	1.144934692981999e-05
	2.600099909663151e-04
	1.041587480940322e-04

 131	1.310000000000001e+00
	-1.764448997909413e-16
	5.463935032028789e-18
	-2.218985954066493e-15
	1.177917263611254e-05
	2.617704197416656e-04
	1.067674328141621e-04

 132	1.320000000000001e+00
	-1.748820336538919e-16
	5.292170495823991e-18
	-2.221840438909015e-15
	1.211505301512810e-05
	2.634824740918383e-04
	1.093934755773422e-04

 133	1.330000000000001e+00
	-1.733259493085941e-16
	5.112602959664430e-18
	-2.224651965808728e-15
	1.245706993302751e-05
	2.651467633767173e-04
	1.120363957362003e-04

 134	1.340000000000001e+00
	-1.717763224397378e-16
	4.924882586971148e-18
	-2.227422292907398e-15
	1.280530754804639e-05
	2.667638983496961e-04
	1.146957187447665e-04

 135	1.350000000000001e+00
	-1.702328485607362e-16
	4.728640297981973e-18
	-2.230153053452556e-15
	1.315985241842845e-05
	2.683344906198599e-04
	1.173709761696841e-04

 136	1.360000000000001e+00
	-1.686952416175528e-16
	4.523486772454263e-18
	-2.232845763119814e-15
	1.352079361286878e-05
	2.698591520744843e-04
	1.200617056958380e-04

 137	1.370000000000001e+00
	-1.671632327006447e-16
	4.309011391728898e-18
	-2.235501826768983e-15
	1.388822282357559e-05
	2.713384942752581e-04
	1.227674511260652e-04

 138	1.380000000000001e+00
	-1.656365688574911e-16
	4.084781117323669e-18
	-2.238122544667582e-15
	1.426223448206445e-05
	2.727731278394788e-04
	1.254877623747508e-04

 139	1.390000000000001e+00
	-1.641150119987279e-16
	3.850339303119419e-18
	-2.240709118213107e-15
	1.464292587780225e-05
	2.741636618155649e-04
	1.282221954551991e-04

 140	1.400000000000001e+00
	-1.625983378914164e-16
	3.605204438097235e-18
	-2.243262655183409e-15
	1.503039727982564e-05
	2.755107030605819e-04
	1.309703124607710e-04

 141	1.410000000000001e+00
	-1.610863352334767e-16
	3.348868816495779e-18
	-2.245784174542394e-15
	1.542475206146074e-05
	2.768148556260315e-04
	1.337316815398325e-04

 142	1.420000000000001e+00
	-1.595788048037657e-16
	3.080797132176996e-18
	-2.248274610826494e-15
	1.582609682827982e-05
	2.780767201569030e-04
	1.365058768646294e-04

 143	1.430000000000001e+00
	-1.580755586827218e-16
	2.800424993920858e-18
	-2.250734818135415e-15
	1.623454154943424e-05
	2.792968933079229e-04
	1.392924785942368e-04

 144	1.440000000000001e+00
	-1.565764195389121e-16
	2.507157358325792e-18
	-2.253165573748982e-15
	1.665019969250956e-05
	2.804759671799997e-04
	1.420910728317726e-04

 145	1.450000000000001e+00
	-1.550812199771813e-16
	2.200366876961524e-18
	-2.255567581390323e-15
	1.707318836205543e-05
	2.816145287790921e-04
	1.449012515760893e-04

 146	1.460000000000001e+00
	-1.535898019444935e-16
	1.879392154424644e-18
	-2.257941474153981e-15
	1.750362844194848e-05
	2.827131594990528e-04
	1.477226126681754e-04

 147	1.470000000000001e+00
	-1.521020161898680e-16
	1.543535913976675e-18
	-2.260287817116236e-15
	1.794164474175332e-05
	2.837724346294392e-04
	1.505547597325126e-04

 148	1.480000000000001e+00
	-1.506177217751458e-16
	1.192063067513111e-18
	-2.262607109643455e-15
	1.838736614725290e-05
	2.847929228888164e-04
	1.533973021136399e-04

 149	1.490000000000001e+00
	-1.491367856336218e-16
	8.241986867240902e-19
	-2.264899787413121e-15
	1.884092577532636e-05
	2.857751859836850e-04
	1.562498548081811e-04

 150	1.500000000000001e+00
	-1.476590821738355e-16
	4.391258724674465e-19
	-2.267166224161005e-15
	1.930246113335915e-05
	2.867197781928445e-04
	1.591120383925928e-04

 151	1.510000000000001e+00
	-1.461844929260960e-16
	3.598351959670851e-20
	-2.269406733166864e-15
	1.977211428337642e-05
	2.876272459767425e-04
	1.619834789468817e-04

 152	1.520000000000001e+00
	-1.447129062295563e-16
	-3.861360252268049e-19
	-2.271621568490126e-15
	2.025003201109776e-05
	2.884981276111538e-04
	1.648638079745422e-04

 153	1.530000000000001e+00
	-1.432442169578616e-16
	-8.281894148426083e-19
	-2.273810925966136e-15
	2.073636600011675e-05
	2.893329528443532e-04
	1.677526623189456e-04

 154	1.540000000000001e+00
	-1.417783262816170e-16
	-1.291184863672950e-18
	-2.275974943972781e-15
	2.123127301141831e-05
	2.901322425768427e-04
	1.706496840764266e-04

 155	1.550000000000001e+00
	-1.403151414661216e-16
	-1.776184821672847e-18
	-2.278113703976649e-15
	2.173491506844768e-05
	2.908965085625640e-04
	1.735545205062651e-04

 156	1.560000000000001e+00
	-1.388545757029719e-16
	-2.284308760576464e-18
	-2.280227230867324e-15
	2.224745964795701e-05
	2.916262531304877e-04
	1.764668239377946e-04

 157	1.570000000000001e+00
	-1.373965479743200e-16
	-2.816736072068117e-18
	-2.282315493088000e-15
	2.276907987685734e-05
	2.923219689254010e-04
	1.793862516748199e-04

 158	1.580000000000001e+00
	-1.359409829487047e-16
	-3.374709076560283e-18
	-2.284378402570266e-15
	2.329995473531036e-05
	2.929841386667003e-04
	1.823124658975372e-04

 159	1.590000000000001e+00
	-1.344878109075118e-16
	-3.959536140157592e-18
	-2.286415814480716e-15
	2.384026926630063e-05
	2.936132349239724e-04
	1.852451335621270e-04

 160	1.600000000000001e+00
	-1.330369677012239e-16
	-4.572594896092672e-18
	-2.288427526786990e-15
	2.439021479193282e-05
	2.942097199081568e-04
	1.881839262981866e-04

 161	1.610000000000001e+00
	-1.315883947347354e-16
	-5.215335565434454e-18
	-2.290413279650946e-15
	2.494998913670207e-05
	2.947740452770807e-04
	1.911285203041434e-04

 162	1.620000000000001e+00
	-1.301420389810530e-16
	-5.889284370153329e-18
	-2.292372754656876e-15
	2.551979685799241e-05
	2.953066519541905e-04
	1.940785962407978e-04

 163	1.630000000000001e+00
	-1.286978530228084e-16
	-6.596047029677112e-18
	-2.294305573883098e-15
	2.609984948405656e-05
	2.958079699593102e-04
	1.970338391231096e-04

 164	1.640000000000001e+00
	-1.272557951209971e-16
	-7.337312329845862e-18
	-2.296211298825839e-15
	2.669036575973780e-05
	2.962784182503098e-04
	1.999939382103545e-04

 165	1.650000000000001e+00
	-1.258158293104091e-16
	-8.114855750666300e-18
	-2.298089429185059e-15
	2.729157190019180e-05
	2.967184045745793e-04
	2.029585868947430e-04

 166	1.660000000000001e+00
	-1.243779255211975e-16
	-8.930543136447646e-18
	-2.299939401522874e-15
	2.790370185286933e-05
	2.971283253292592e-04
	2.059274825886049e-04

 167	1.670000000000001e+00
	-1.229420597259975e-16
	-9.786334388744525e-18
	-2.301760587806361e-15
	2.852699756801800e-05
	2.975085654292058e-04
	2.089003266102108e-04

 168	1.680000000000001e+00
	-1.215082141119310e-16
	-1.068428715903347e-17
	-2.303552293848024e-15
	2.916170927796142e-05
	2.978594981817195e-04
	2.118768240683163e-04

 169	1.690000000000001e+00
	-1.200763772767717e-16
	-1.162656051417429e-17
	-2.305313757658722e-15
	2.980809578540583e-05
	2.981814851671002e-04
	2.148566837454763e-04

 170	1.700000000000001e+00
	-1.186465444483802e-16
	-1.261541854345204e-17
	-2.307044147729905e-15
	3.046642476102440e-05
	2.984748761241419e-04
	2.178396179801971e-04

 171	1.710000000000001e+00
	-1.172187177263737e-16
	-1.365323387135133e-17
	-2.308742561264061e-15
	3.113697305055578e-05
	2.987400088397224e-04
	2.208253425479628e-04

 172	1.720000000000001e+00
	-1.157929063447887e-16
	-1.474249103517249e-17
	-2.310408022374780e-15
	3.182002699164793e-05
	2.989772090416814e-04
	2.238135765411760e-04

 173	1.730000000000001e+00
	-1.143691269542511e-16
	-1.588578968117403e-17
	-2.312039480280508e-15
	3.251588274066210e-05
	2.991867902942351e-04
	2.268040422480416e-04

 174	1.740000000000001e+00
	-1.129474039218619e-16
	-1.708584752712362e-17
	-2.313635807519127e-15
	3.322484660963800e-05
	2.993690538952074e-04
	2.297964650304138e-04

 175	1.750000000000001e+00
	-1.115277696466764e-16
	-1.834550303300281e-17
	-2.315195798213703e-15
	3.394723541360138e-05
	2.995242887744145e-04
	2.327905732006255e-04

 176	1.760000000000001e+00