Title: **.subckt gm_id_nmos
Date: Tue Jun  1 20:10:04  2021
Plotname: DC transfer characteristic
Flags: real
No. Variables: 7
No. Points: 181
Variables:
	0	v(v-sweep)	voltage
	1	@m.xm1.msky130_fd_pr__nfet_01v8[cgb]	capacitance
	2	@m.xm1.msky130_fd_pr__nfet_01v8[cgd]	capacitance
	3	@m.xm1.msky130_fd_pr__nfet_01v8[cgs]	capacitance
	4	@m.xm1.msky130_fd_pr__nfet_01v8[gds]	admittance
	5	@m.xm1.msky130_fd_pr__nfet_01v8[gm]	admittance
	6	i(@m.xm1.msky130_fd_pr__nfet_01v8[id])	current
Values:
 0	0.000000000000000e+00
	-8.162638982249190e-16
	9.869405359794599e-20
	-2.140104270172073e-17
	2.910341370921940e-14
	2.050136600901583e-12
	7.645039879080118e-14

 1	1.000000000000000e-02
	-8.112435811686914e-16
	1.059888878905463e-19
	-2.290791249246154e-17
	3.801756222348837e-14
	2.680589958576916e-12
	9.996335462289931e-14

 2	2.000000000000000e-02
	-8.062731028820384e-16
	1.139100889014408e-19
	-2.454526461531527e-17
	4.966145804163018e-14
	3.504872321348073e-12
	1.307067524059232e-13

 3	3.000000000000000e-02
	-8.013476643683422e-16
	1.225171335296614e-19
	-2.632549984630011e-17
	6.487074170320466e-14
	4.582552244910209e-12
	1.709034439746368e-13

 4	4.000000000000000e-02
	-7.964623030550123e-16
	1.318748050353439e-19
	-2.826213413945333e-17
	8.473672799160994e-14
	5.991493863968161e-12
	2.234593688801530e-13

 5	5.000000000000000e-02
	-7.916118735181947e-16
	1.420535771922718e-19
	-3.036988079781335e-17
	1.106845667994215e-13
	7.833470499694774e-12
	2.921733293030568e-13

 6	6.000000000000000e-02
	-7.867910278314607e-16
	1.531300144182969e-19
	-3.266473626457219e-17
	1.445752660484531e-13
	1.024149791664344e-11
	3.820111175135705e-13

 7	7.000000000000001e-02
	-7.819941956434698e-16
	1.651871858717181e-19
	-3.516406914818654e-17
	1.888388458891929e-13
	1.338941265431326e-11
	4.994637032440514e-13

 8	8.000000000000000e-02
	-7.772155641352474e-16
	1.783150905582218e-19
	-3.788671190276289e-17
	2.466481001654640e-13
	1.750438072510116e-11
	6.530152067615499e-13

 9	9.000000000000000e-02
	-7.724490580641507e-16
	1.926110893179138e-19
	-4.085305434465953e-17
	3.221453140238294e-13
	2.288323014609802e-11
	8.537542315084999e-13

 10	9.999999999999999e-02
	-7.676883201696846e-16
	2.081803381255215e-19
	-4.408513789163254e-17
	4.207380248144513e-13
	2.991377169286651e-11
	1.116172360130040e-12

 11	1.100000000000000e-01
	-7.629266922971862e-16
	2.251362154139406e-19
	-4.760674905651486e-17
	5.494847749673770e-13
	3.910262459681825e-11
	1.459206946295724e-12

 12	1.200000000000000e-01
	-7.581571976894848e-16
	2.436007341043230e-19
	-5.144351030943805e-17
	7.175981237645535e-13
	5.111152175775388e-11
	1.907602691520853e-12

 13	1.300000000000000e-01
	-7.533725250036189e-16
	2.637049266886062e-19
	-5.562296593918512e-17
	9.371003902330445e-13
	6.680466347066426e-11
	2.493689085104685e-12

 14	1.400000000000000e-01
	-7.485650147289582e-16
	2.855891890725682e-19
	-6.017465999698645e-17
	1.223678246318835e-12
	8.731045961315482e-11
	3.259700163522479e-12

 15	1.500000000000000e-01
	-7.437266488121040e-16
	3.094035659787552e-19
	-6.513020280035731e-17
	1.597796081143995e-12
	1.141019989371698e-10
	4.260801223908492e-12

 16	1.600000000000000e-01
	-7.388490444301708e-16
	3.353079575853035e-19
	-7.052332182152618e-17
	2.086145928285197e-12
	1.491018760752821e-10
	5.569036696414744e-12

 17	1.700000000000000e-01
	-7.339234529920809e-16
	3.634722238244305e-19
	-7.638989210143194e-17
	2.723534858945013e-12
	1.948186756147998e-10
	7.278477675717892e-12

 18	1.800000000000000e-01
	-7.289407655816702e-16
	3.940761595061212e-19
	-8.276794064104774e-17
	3.555340587087444e-12
	2.545245641278746e-10
	9.511930909742770e-12

 19	1.900000000000000e-01
	-7.238915261779980e-16
	4.273093103292267e-19
	-8.969761855931328e-17
	4.640704504340725e-12
	3.324862093400391e-10
	1.242967881568648e-11

 20	2.000000000000000e-01
	-7.187659540879662e-16
	4.633705970989072e-19
	-9.722113421315831e-17
	6.056680861724180e-12
	4.342647990523069e-10
	1.624085931755240e-11

 21	2.100000000000000e-01
	-7.135539770919358e-16
	5.024677133317857e-19
	-1.053826400002846e-16
	7.903624361643861e-12
	5.671054812809498e-10
	2.121827384002853e-11

 22	2.200000000000001e-01
	-7.082452768218087e-16
	5.448162601859593e-19
	-1.142280652688782e-16
	1.031217979555554e-11
	7.404423519825369e-10
	2.771764286246944e-11

 23	2.300000000000001e-01
	-7.028293478485182e-16
	5.906385826182838e-19
	-1.238048877058150e-16
	1.345234125466454e-11
	9.665524978302442e-10
	3.620262514107054e-11

 24	2.400000000000001e-01
	-6.972955718367755e-16
	6.401622722024374e-19
	-1.341618358407274e-16
	1.754518063901699e-11
	1.261401947939759e-09
	4.727729669688188e-11

 25	2.500000000000001e-01
	-6.916333079181314e-16
	6.936183054171198e-19
	-1.453485159458373e-16
	2.287801274631466e-11
	1.645738166469162e-09
	6.172827084691279e-11

 26	2.600000000000001e-01
	-6.858320001197785e-16
	7.512387918917300e-19
	-1.574149577286769e-16
	2.982397565011484e-11
	2.146498479023569e-09
	8.057925795268518e-11

 27	2.700000000000001e-01
	-6.798813022667421e-16
	8.132543151426723e-19
	-1.704110748208732e-16
	3.886727046126378e-11
	2.798622205659339e-09
	1.051616460752947e-10

 28	2.800000000000001e-01
	-6.737712202353274e-16
	8.798908591154395e-19
	-1.843860382426328e-16
	5.063563568730164e-11
	3.647376990830706e-09
	1.372056711150188e-10

 29	2.900000000000001e-01
	-6.674922707844064e-16
	9.513663272910104e-19
	-1.993875637567661e-16
	6.594204164577067e-11
	4.751337657267926e-09
	1.789579844949724e-10

 30	3.000000000000001e-01
	-6.610356554357953e-16
	1.027886677151946e-18
	-2.154611173090400e-16
	8.583809452006932e-11
	6.186189679354181e-09
	2.333329732801889e-10

 31	3.100000000000001e-01
	-6.543934470363730e-16
	1.109641711103188e-18
	-2.326490465198724e-16
	1.116822532638554e-10
	8.049569859257938e-09
	3.041071051113579e-10

 32	3.200000000000001e-01
	-6.475587857422404e-16
	1.196800584959142e-18
	-2.509896503378019e-16
	1.452267010977868e-10
	1.046720467387180e-08
	3.961679291906012e-10

 33	3.300000000000001e-01
	-6.405260802595225e-16
	1.289507116057023e-18
	-2.705162033299659e-16
	1.887275905182542e-10
	1.360066249678456e-08
	5.158322412693794e-10

 34	3.400000000000001e-01
	-6.332912093069565e-16
	1.387874993923241e-18
	-2.912559554630282e-16
	2.450844062669807e-10
	1.765709957568008e-08
	6.712513944827723e-10

 35	3.500000000000001e-01
	-6.258517174890242e-16
	1.491983015987940e-18
	-3.132291323700996e-16
	3.180153671864662e-10
	2.290145083017311e-08
	8.729258866860634e-10

 36	3.600000000000002e-01
	-6.182069991464695e-16
	1.601870487756623e-18
	-3.364479647250832e-16
	4.122771068223432e-10
	2.967159414522766e-08
	1.134356248928566e-09

 37	3.700000000000002e-01
	-6.103584633448935e-16
	1.717532939689548e-18
	-3.609157781605061e-16
	5.339383098455141e-10
	3.839709909425029e-08
	1.472862954774883e-09

 38	3.800000000000002e-01
	-6.023096730282786e-16
	1.838918320431437e-18
	-3.866261768785303e-16
	6.907184921927705e-10
	4.962225561649368e-08
	1.910614601555760e-09

 39	3.900000000000002e-01
	-5.940664515490531e-16
	1.965923826766796e-18
	-4.135623544605469e-16
	8.924046281516862e-10
	6.403416274111610e-08
	2.475910993547154e-09

 40	4.000000000000002e-01
	-5.856369503202276e-16
	2.098393523819860e-18
	-4.416965641762173e-16
	1.151359752149090e-09
	8.249674064194406e-08
	3.204775975083168e-09

 41	4.100000000000002e-01
	-5.770316722283804e-16
	2.236116894053782e-18
	-4.709897782092669e-16
	1.483138877761042e-09
	1.060916125239954e-07
	4.142923908721193e-09

 42	4.200000000000002e-01
	-5.682634466851326e-16
	2.378828430529034e-18
	-5.013915606370274e-16
	1.907228447430232e-09
	1.361668927628499e-07
	5.348173597802433e-09

 43	4.300000000000002e-01
	-5.593473537396669e-16
	2.526208359201177e-18
	-5.328401728230419e-16
	2.447925920410180e-09
	1.743950293278482e-07
	6.893394347846699e-09

 44	4.400000000000002e-01
	-5.503005964612478e-16
	2.677884537898770e-18
	-5.652629223270985e-16
	3.135375912799626e-09
	2.228410077708623e-07
	8.870081083976938e-09

 45	4.500000000000002e-01
	-5.411423227415612e-16
	2.833435537699019e-18
	-5.985767578405605e-16
	4.006778454105670e-09
	2.840424682424938e-07
	1.139266964637584e-08

 46	4.600000000000002e-01
	-5.318933996579434e-16
	2.992394867842251e-18
	-6.326891034494468e-16
	5.107783398237226e-09
	3.611036595479744e-07
	1.460372063839531e-08

 47	4.700000000000003e-01
	-5.225761454664540e-16
	3.154256260548414e-18
	-6.674989162164277e-16
	6.494082811815273e-09
	4.578056893768611e-07
	1.868012197486818e-08

 48	4.800000000000003e-01
	-5.132140260433552e-16
	3.318479889708053e-18
	-7.028979421912670e-16
	8.233210148250364e-09
	5.787362216843812e-07
	2.384048821891804e-08

 49	4.900000000000003e-01
	-5.038313240582205e-16
	3.484499359937707e-18
	-7.387721380333774e-16
	1.040655078111223e-08
	7.294425252141454e-07
	3.035397009377818e-08

 50	5.000000000000002e-01
	-4.944527902520956e-16
	3.651729272172196e-18
	-7.750032189361290e-16
	1.311156197052810e-08
	9.166123402378927e-07
	3.855072972730761e-08

 51	5.100000000000002e-01
	-4.851032868449984e-16
	3.819573150600334e-18
	-8.114702888622450e-16
	1.646418954748318e-08
	1.148286929768190e-06
	4.883438217049985e-08

 52	5.200000000000002e-01
	-4.758074332737950e-16
	3.987431504528700e-18
	-8.480515064953777e-16
	2.060145027737769e-08
	1.434109183372186e-06
	6.169674143569554e-08

 53	5.300000000000002e-01
	-4.665892641619747e-16
	4.154709798160568e-18
	-8.846257399005607e-16
	2.568411868106246e-08
	1.785605798090507e-06
	7.773522113866035e-08

 54	5.400000000000003e-01
	-4.574719086772445e-16
	4.320826111066772e-18
	-9.210741646334436e-16
	3.189941050508958e-08
	2.216495392599400e-06
	9.767319735322152e-08

 55	5.500000000000003e-01
	-4.484772993000234e-16
	4.485218291373536e-18
	-9.572817637683015e-16
	3.946348911449612e-08
	2.743003268190588e-06
	1.223835075310268e-07

 56	5.600000000000003e-01
	-4.396259165877886e-16
	4.647350430886547e-18
	-9.931386937276116e-16
	4.862353726804728e-08
	3.384148608665430e-06
	1.529149945952184e-07

 57	5.700000000000003e-01
	-4.309365748739541e-16
	4.806718524563263e-18
	-1.028541486498176e-15
	5.965904387892381e-08
	4.161952795695833e-06
	1.905215783678273e-07

 58	5.800000000000003e-01
	-4.224262520894116e-16
	4.962855213732634e-18
	-1.063394066359978e-15
	7.288187180768436e-08
	5.101501521438396e-06
	2.366927404966495e-07

 59	5.900000000000003e-01
	-4.141099651422063e-16
	5.115333550969327e-18
	-1.097608567165336e-15
	8.863462576212326e-08
	6.230783396755945e-06
	2.931835786018670e-07

 60	6.000000000000003e-01
	-4.060006906289793e-16
	5.263769762395942e-18
	-1.131105944038112e-15
	1.072868606583466e-07
	7.580229378303395e-06
	3.620418085431973e-07

 61	6.100000000000003e-01
	-3.981093291582706e-16
	5.407825018507253e-18
	-1.163816380716376e-15
	1.292287876859777e-07
	9.181895300450576e-06
	4.456284117659096e-07

 62	6.200000000000003e-01
	-3.904447102991329e-16
	5.547206255850241e-18
	-1.195679500311668e-15
	1.548623598205636e-07
	1.106826603295077e-05
	5.466282137866429e-07

 63	6.300000000000003e-01
	-3.830136341659575e-16
	5.681666117955260e-18
	-1.226644392767665e-15
	1.845899375456342e-07
	1.327071180822596e-05
	6.680467144681179e-07

 64	6.400000000000003e-01
	-3.758209449285601e-16
	5.811002104151450e-18
	-1.256669476627038e-15
	2.188011068360817e-07
	1.581768759981673e-05
	8.131900953224244e-07

 65	6.500000000000004e-01
	-3.688696310929406e-16
	5.935055029105490e-18
	-1.285722215804768e-15
	2.578585784514663e-07
	1.873282361643679e-05
	9.856265319508236e-07

 66	6.600000000000004e-01
	-3.621609472143639e-16
	6.053706904268271e-18
	-1.313778713945774e-15
	3.020843634621849e-07
	2.203309607485823e-05
	1.189128644514683e-06

 67	6.700000000000004e-01
	-3.556945517502441e-16
	6.166878355379379e-18
	-1.340823209706105e-15
	3.517475274783092e-07
	2.572728147848855e-05
	1.427598907095711e-06

 68	6.800000000000004e-01
	-3.494686559976136e-16
	6.274525688464855e-18
	-1.366847496078942e-15
	4.070547372906425e-07
	2.981487894214973e-05
	1.704981803541209e-06

 69	6.900000000000004e-01
	-3.434801794465900e-16
	6.376637711207654e-18
	-1.391850285858530e-15
	4.681445324020550e-07
	3.428563514129495e-05
	2.025168136454823e-06

 70	7.000000000000004e-01
	-3.377249073747494e-16
	6.473232408064567e-18
	-1.415836543678493e-15
	5.350858268094234e-07
	3.911973381179373e-05
	2.391897892221882e-06

 71	7.100000000000004e-01
	-3.321976470674007e-16
	6.564353556930953e-18
	-1.438816802957501e-15
	6.078806513682210e-07
	4.428862995219577e-05
	2.808668276468939e-06

 72	7.200000000000004e-01
	-3.268923796395847e-16
	6.650067363333835e-18
	-1.460806483703920e-15
	6.864706735333527e-07
	4.975643304299596e-05
	3.278652945605554e-06

 73	7.300000000000004e-01
	-3.218024050268319e-16
	6.730459175785257e-18
	-1.481825224622375e-15
	7.707466580335643e-07
	5.548168653594631e-05
	3.804637197909586e-06

 74	7.400000000000004e-01
	-3.169204782791372e-16
	6.805630333651640e-18
	-1.501896240454435e-15
	8.605598100929552e-07
	6.141936040733661e-05
	4.388972183856626e-06

 75	7.500000000000004e-01
	-3.122389358183267e-16
	6.875695187162883e-18
	-1.521045713073137e-15
	9.557338874413431e-07
	6.752287137541995e-05
	5.033549329569271e-06

 76	7.600000000000005e-01
	-3.077498107906457e-16
	6.940778318346178e-18
	-1.539302222610919e-15
	1.056077060478633e-06
	7.374596753924666e-05
	5.739794406490016e-06

 77	7.700000000000005e-01
	-3.034449370570849e-16
	7.001011981953712e-18
	-1.556696222882937e-15
	1.161392700243170e-06
	8.004435306466941e-05
	6.508679232109007e-06

 78	7.800000000000005e-01
	-2.993160417107784e-16
	7.056533776991908e-18
	-1.573259563602174e-15
	1.271488530152612e-06
	8.637697511209711e-05
	7.340747973039638e-06

 79	7.900000000000005e-01
	-2.953548262944323e-16
	7.107484552299621e-18
	-1.589025060380985e-15
	1.386183841370162e-06
	9.270694120054428e-05
	8.236154477226880e-06

 80	8.000000000000005e-01
	-2.915530371144995e-16
	7.154006543742281e-18
	-1.604026112273291e-15
	1.505314705838539e-06
	9.900207450423407e-05
	9.194706948100251e-06

 81	8.100000000000005e-01
	-2.879025252175205e-16
	7.196241735921489e-18
	-1.618296365620423e-15
	1.628737303133771e-06
	1.052351437338214e-04
	1.021591650355770e-05

 82	8.200000000000005e-01
	-2.843952967140229e-16
	7.234330437739859e-18
	-1.631869422200966e-15
	1.756329599268021e-06
	1.113838223209274e-04
	1.129904662870805e-05

 83	8.300000000000005e-01
	-2.810235542130974e-16
	7.268410058587923e-18
	-1.644778589127128e-15
	1.887991680492791e-06
	1.174304395451949e-04
	1.244316112588394e-05

 84	8.400000000000005e-01
	-2.777797301730315e-16
	7.298614070198797e-18
	-1.657056667549884e-15
	2.023645062997938e-06
	1.233615860769663e-04
	1.364716879677489e-05

 85	8.500000000000005e-01
	-2.746565129867091e-16
	7.325071138215201e-18
	-1.668735777005582e-15
	2.163231283079744e-06
	1.291676306292510e-04
	1.490986369102269e-05

 86	8.600000000000005e-01
	-2.716468666107877e-16
	7.347904407101761e-18
	-1.679847212131522e-15
	2.306710034707976e-06
	1.348421953885650e-04
	1.622996027925123e-05

 87	8.700000000000006e-01
	-2.687440445204798e-16
	7.367230922095298e-18
	-1.690421328472631e-15
	2.454057073392055e-06
	1.403816275837653e-04
	1.760612333401494e-05

 88	8.800000000000006e-01
	-2.659415987317044e-16
	7.383161172309419e-18
	-1.700487454173682e-15
	2.605262055060692e-06
	1.457844943826618e-04
	1.903699262429573e-05

 89	8.900000000000006e-01
	-2.632333845835125e-16
	7.395798739803698e-18
	-1.710073824482237e-15
	2.760326431789506e-06
	1.510511191835682e-04
	2.052120275430207e-05

 90	9.000000000000006e-01
	-2.606135619193864e-16
	7.405240040310609e-18
	-1.719207536159686e-15
	2.919261485715740e-06
	1.561831697603785e-04
	2.205739861856174e-05

 91	9.100000000000006e-01
	-2.580765932488961e-16
	7.411574142321273e-18
	-1.727914519097635e-15
	3.082086549623996e-06
	1.611833027660814e-04
	2.364424701870709e-05

 92	9.200000000000006e-01
	-2.556172373626829e-16
	7.414882685404406e-18
	-1.736219530489468e-15
	3.248827553341213e-06
	1.660548691008746e-04
	2.528044650316094e-05

 93	9.300000000000006e-01
	-2.532305512713601e-16
	7.415239686868800e-18
	-1.744146121770454e-15
	3.419515203472812e-06
	1.708016508244727e-04
	2.696472702276163e-05

 94	9.400000000000006e-01
	-2.509118696180012e-16
	7.412711729269631e-18
	-1.751716696390350e-15
	3.594184538717182e-06
	1.754276915942027e-04
	2.869586230370729e-05

 95	9.500000000000006e-01
	-2.486568039584896e-16
	7.407357845312997e-18
	-1.758952494667416e-15
	3.772873504929393e-06
	1.799371252540150e-04
	3.047266556691356e-05

 96	9.600000000000006e-01
	-2.464612304276812e-16
	7.399229601580707e-18
	-1.765873626938176e-15
	3.955622291789750e-06
	1.843340643637775e-04
	3.229399135406458e-05

 97	9.700000000000006e-01
	-2.443212788904006e-16
	7.388371168790094e-18
	-1.772499103877110e-15
	4.142472703164274e-06
	1.886225153678263e-04
	3.415873486622227e-05

 98	9.800000000000006e-01
	-2.422333216490772e-16
	7.374819406911094e-18
	-1.778846871130070e-15
	4.333467658227509e-06
	1.928063194532607e-04
	3.606583058713608e-05

 99	9.900000000000007e-01
	-2.401939619014638e-16
	7.358603959781683e-18
	-1.784933847188870e-15
	4.528650803377738e-06
	1.968891140958161e-04
	3.801425042260525e-05

 100	1.000000000000001e+00
	-2.382000221098450e-16
	7.339747354582130e-18
	-1.790775963586264e-15
	4.728066216745133e-06
	2.008743109128506e-04
	4.000300154032535e-05

 101	1.010000000000001e+00
	-2.362485324148903e-16
	7.318265102172086e-18
	-1.796388206627006e-15
	4.931758189162045e-06
	2.047650860774338e-04
	4.203112405400994e-05

 102	1.020000000000001e+00
	-2.343367192024892e-16
	7.294165794866127e-18
	-1.801784659992891e-15
	5.139771067611334e-06
	2.085643801554281e-04
	4.409768866121021e-05

 103	1.030000000000001e+00
	-2.324619939103317e-16
	7.267451198726360e-18
	-1.806978547668024e-15
	5.352149149241051e-06
	2.122749047852455e-04
	4.620179431569995e-05

 104	1.040000000000001e+00
	-2.306219421423413e-16
	7.238116337889063e-18
	-1.811982276726031e-15
	5.568936615950539e-06
	2.158991541158246e-04
	4.834256599203760e-05

 105	1.050000000000001e+00
	-2.288143131430872e-16
	7.206149568822765e-18
	-1.816807479604577e-15
	5.790177501265816e-06
	2.194394193482596e-04
	5.051915258126864e-05

 106	1.060000000000001e+00
	-2.270370096706754e-16
	7.171532642739763e-18
	-1.821465055565224e-15
	6.015915682718584e-06
	2.228978050916503e-04
	5.273072494207255e-05

 107	1.070000000000001e+00
	-2.252880782951183e-16
	7.134240754660227e-18
	-1.825965211099601e-15
	6.246194894224656e-06
	2.262762465484363e-04
	5.497647412033950e-05

 108	1.080000000000001e+00
	-2.235657001395513e-16
	7.094242577859781e-18
	-1.830317499096751e-15
	6.481058754036531e-06
	2.295765267946901e-04
	5.725560974159960e-05

 109	1.090000000000001e+00
	-2.218681820736602e-16
	7.051500282624158e-18
	-1.834530856632726e-15
	6.720550804744837e-06
	2.328002936233798e-04
	5.956735857444563e-05

 110	1.100000000000001e+00
	-2.201939483621112e-16
	7.005969538391749e-18
	-1.838613641282451e-15
	6.964714562541653e-06
	2.359490755800994e-04
	6.191096325860071e-05

 111	1.110000000000001e+00
	-2.185415327654169e-16
	6.957599498491185e-18
	-1.842573665886876e-15
	7.213593573561580e-06
	2.390242969477130e-04
	6.428568118824360e-05

 112	1.120000000000001e+00
	-2.169095710864065e-16
	6.906332766778800e-18
	-1.846418231735812e-15
	7.467231475602637e-06
	2.420272915345582e-04
	6.669078353928315e-05

 113	1.130000000000001e+00
	-2.152967941520837e-16
	6.852105345555633e-18
	-1.850154160149616e-15
	7.725672063918104e-06
	2.449593151954758e-04
	6.912555442820526e-05

 114	1.140000000000001e+00
	-2.137020212180382e-16
	6.794846564195739e-18
	-1.853787822461572e-15
	7.988959360080987e-06
	2.478215570704848e-04
	7.158929018971148e-05

 115	1.150000000000001e+00
	-2.121241537806569e-16
	6.734478987952030e-18
	-1.857325168417806e-15
	8.257137683165703e-06
	2.506151495661743e-04
	7.408129876041567e-05

 116	1.160000000000001e+00
	-2.105621697809211e-16
	6.670918306423230e-18
	-1.860771753023806e-15
	8.530251722684307e-06
	2.533411771330703e-04
	7.660089915627757e-05

 117	1.170000000000001e+00
	-2.090151181826846e-16
	6.604073201168723e-18
	-1.864132761875926e-15
	8.808346612863470e-06
	2.560006839109770e-04
	7.914742103208323e-05

 118	1.180000000000001e+00
	-2.074821139077108e-16
	6.533845191949309e-18
	-1.867413035023626e-15
	9.091468007962718e-06
	2.585946803257514e-04
	8.172020431205471e-05

 119	1.190000000000001e+00
	-2.059623331094892e-16
	6.460128461051326e-18
	-1.870617089413609e-15
	9.379662158425008e-06
	2.611241487269442e-04
	8.431859888155821e-05

 120	1.200000000000001e+00
	-2.044550087678552e-16
	6.382809655122031e-18
	-1.873749139970788e-15
	9.672975987716521e-06
	2.635900481575662e-04
	8.694196433076839e-05

 121	1.210000000000001e+00
	-2.029594265866045e-16
	6.301767663905503e-18
	-1.876813119373659e-15
	9.971457169765447e-06
	2.659933183461061e-04
	8.958966974206813e-05

 122	1.220000000000001e+00
	-2.014749211766420e-16
	6.216873375223897e-18
	-1.879812696583035e-15
	1.027515420694740e-05
	2.683348830076860e-04
	9.226109351384078e-05

 123	1.230000000000001e+00
	-2.000008725076811e-16
	6.127989405494921e-18
	-1.882751294183724e-15
	1.058411650859502e-05
	2.706156525365528e-04
	9.495562321416593e-05

 124	1.240000000000001e+00
	-1.985367026120613e-16
	6.034969805020092e-18
	-1.885632104598546e-15
	1.089839447003076e-05
	2.728365261665596e-04
	9.767265545871752e-05

 125	1.250000000000001e+00
	-1.970818725248906e-16
	5.937659737213775e-18
	-1.888458105233390e-15
	1.121803955213882e-05
	2.749983936702282e-04
	1.004115958079082e-04

 126	1.260000000000001e+00
	-1.956358794453828e-16
	5.835895130876374e-18
	-1.891232072610795e-15
	1.154310436150337e-05
	2.771021366607229e-04
	1.031718586789840e-04

 127	1.270000000000001e+00
	-1.941982541049811e-16
	5.729502304542083e-18
	-1.893956595547995e-15
	1.187364273115120e-05
	2.791486295548633e-04
	1.059528672694046e-04

 128	1.280000000000001e+00
	-1.927685583285876e-16
	5.618297561856133e-18
	-1.896634087433521e-15
	1.220970980194272e-05
	2.811387402492350e-04
	1.087540534883774e-04

 129	1.290000000000001e+00
	-1.913463827759176e-16
	5.502086756857754e-18
	-1.899266797654485e-15
	1.255136210466184e-05
	2.830733305557169e-04
	1.115748578939188e-04

 130	1.300000000000001e+00
	-1.899313448507610e-16
	5.380664827962556e-18
	-1.901856822224408e-15
	1.289865764285952e-05
	2.849532564373221e-04
	1.144147296332424e-04

 131	1.310000000000001e+00
	-1.885230867666287e-16
	5.253815299353811e-18
	-1.904406113659263e-15
	1.325165597650952e-05
	2.867793680802566e-04
	1.172731263846601e-04

 132	1.320000000000001e+00
	-1.871212737579562e-16
	5.121309748404168e-18
	-1.906916490147046e-15
	1.361041830653960e-05
	2.885525098334971e-04
	1.201495142995233e-04

 133	1.330000000000001e+00
	-1.857255924267243e-16
	4.982907237662121e-18
	-1.909389644053864e-15
	1.397500756030325e-05
	2.902735200430151e-04
	1.230433679430141e-04

 134	1.340000000000001e+00
	-1.843357492150066e-16
	4.838353709845288e-18
	-1.911827149807180e-15
	1.434548847806147e-05
	2.919432308039988e-04
	1.259541702328546e-04

 135	1.350000000000001e+00
	-1.829514689945803e-16
	4.687381344192763e-18
	-1.914230471194593e-15
	1.472192770054681e-05
	2.935624676510583e-04
	1.288814123752171e-04

 136	1.360000000000001e+00
	-1.815724937653418e-16
	4.529707872435532e-18
	-1.916600968114202e-15
	1.510439385768521e-05
	2.951320492033790e-04
	1.318245937973001e-04

 137	1.370000000000001e+00
	-1.801985814548235e-16
	4.365035852553406e-18
	-1.918939902810513e-15
	1.549295765855500e-05
	2.966527867791339e-04
	1.347832220761977e-04

 138	1.380000000000001e+00
	-1.788295048116873e-16
	4.193051898393743e-18
	-1.921248445627582e-15
	1.588769198266519e-05
	2.981254839911147e-04
	1.377568128638112e-04

 139	1.390000000000001e+00
	-1.774650503865432e-16
	4.013425863140259e-18
	-1.923527680309179e-15
	1.628867197263959e-05
	2.995509363334933e-04
	1.407448898076710e-04

 140	1.400000000000001e+00
	-1.761050175939594e-16
	3.825809974529948e-18
	-1.925778608873672e-15
	1.669597512839619e-05
	3.009299307678270e-04
	1.437469844676181e-04

 141	1.410000000000001e+00
	-1.747492178499774e-16
	3.629837919635057e-18
	-1.928002156089497e-15
	1.710968140291588e-05
	3.022632453148808e-04
	1.467626362283738e-04

 142	1.420000000000001e+00
	-1.733974737798772e-16
	3.425123876946029e-18
	-1.930199173575320e-15
	1.752987329969816e-05
	3.035516486574860e-04
	1.497913922080835e-04

 143	1.430000000000001e+00
	-1.720496184913562e-16
	3.211261493419551e-18
	-1.932370443547154e-15
	1.795663597200532e-05
	3.047958997585203e-04
	1.528328071629647e-04

 144	1.440000000000001e+00
	-1.707054949086495e-16
	2.987822804091261e-18
	-1.934516682233260e-15
	1.839005732400084e-05
	3.059967474971042e-04
	1.558864433882247e-04

 145	1.450000000000001e+00
	-1.693649551635036e-16
	2.754357091795685e-18
	-1.936638542975948e-15
	1.883022811389274e-05
	3.071549303252812e-04
	1.589518706154476e-04

 146	1.460000000000001e+00
	-1.680278600392254e-16
	2.510389684495216e-18
	-1.938736619038064e-15
	1.927724205919562e-05
	3.082711759467484e-04
	1.620286659066596e-04

 147	1.470000000000001e+00
	-1.666940784643683e-16
	2.255420687689848e-18
	-1.940811446130538e-15
	1.973119594422964e-05
	3.093462010186098e-04
	1.651164135452946e-04

 148	1.480000000000001e+00
	-1.653634870528880e-16
	1.988923649368425e-18
	-1.942863504676113e-15
	2.019218972998120e-05
	3.103807108766544e-04
	1.682147049243052e-04

 149	1.490000000000001e+00
	-1.640359696879102e-16
	1.710344154972659e-18
	-1.944893221823114e-15
	2.066032666645112e-05
	3.113753992842359e-04
	1.713231384316418e-04

 150	1.500000000000001e+00
	-1.627114171464664e-16
	1.419098349878653e-18
	-1.946900973222126e-15
	2.113571340762306e-05
	3.123309482045236e-04
	1.744413193333409e-04

 151	1.510000000000001e+00
	-1.613897267628463e-16
	1.114571386964425e-18
	-1.948887084577268e-15
	2.161846012918902e-05
	3.132480275956217e-04
	1.775688596544541e-04

 152	1.520000000000001e+00
	-1.600708021283815e-16
	7.961157969276993e-19
	-1.950851832982920e-15
	2.210868064917283e-05
	3.141272952278485e-04
	1.807053780580436e-04

 153	1.530000000000001e+00
	-1.587545528257487e-16
	4.630497791556663e-19
	-1.952795448055785e-15
	2.260649255159696e-05
	3.149693965223018e-04
	1.838504997224559e-04

 154	1.540000000000001e+00
	-1.574408941960142e-16
	1.146554111263003e-19
	-1.954718112871437e-15
	2.311201731334382e-05
	3.157749644097224e-04
	1.870038562170894e-04

 155	1.550000000000001e+00
	-1.561297471368661e-16
	-2.498232254428677e-19
	-1.956619964713748e-15
	2.362538043436557e-05
	3.165446192085667e-04
	1.901650853768477e-04

 156	1.560000000000001e+00
	-1.548210379306244e-16
	-6.311820031953301e-19
	-1.958501095644946e-15
	2.414671157140291e-05
	3.172789685211530e-04
	1.933338311754680e-04

 157	1.570000000000001e+00
	-1.535146981007708e-16
	-1.030258793619612e-18
	-1.960361552903519e-15
	2.467614467537585e-05
	3.179786071466907e-04
	1.965097435978955e-04

 158	1.580000000000001e+00
	-1.522106642959058e-16
	-1.447935598117285e-18
	-1.962201339136666e-15
	2.521381813261674e-05
	3.186441170100015e-04
	1.996924785118746e-04

 159	1.590000000000001e+00
	-1.509088782001244e-16
	-1.885140765833539e-18
	-1.964020412473633e-15
	2.575987491011705e-05
	3.192760671047202e-04
	2.028816975388951e-04

 160	1.600000000000001e+00
	-1.496092864689574e-16
	-2.342851297808725e-18
	-1.965818686445954e-15
	2.631446270496748e-05
	3.198750134497854e-04
	2.060770679246459e-04

 161	1.610000000000001e+00
	-1.483118406901017e-16
	-2.822095236281858e-18
	-1.967596029760401e-15
	2.687773409817214e-05
	3.204414990580446e-04
	2.092782624090919e-04

 162	1.620000000000001e+00
	-1.470164973682535e-16
	-3.323954137127755e-18
	-1.969352265930346e-15
	2.744984671302488e-05
	3.209760539158212e-04
	2.124849590962969e-04

 163	1.630000000000001e+00
	-1.457232179334394e-16
	-3.849565622423479e-18
	-1.971087172771225e-15
	2.803096337823737e-05
	3.214791949723335e-04
	2.156968413240925e-04

 164	1.640000000000001e+00
	-1.444319687722882e-16
	-4.400126009007255e-18
	-1.972800481765886e-15
	2.862125229601490e-05
	3.219514261378848e-04
	2.189135975336869e-04

 165	1.650000000000001e+00
	-1.431427212817441e-16
	-4.976893007593549e-18
	-1.974491877305832e-15
	2.922088721527862e-05
	3.223932382897894e-04
	2.221349211392969e-04

 166	1.660000000000001e+00
	-1.418554519447251e-16
	-5.581188485529915e-18
	-1.976160995814712e-15
	2.983004761023668e-05
	3.228051092850396e-04
	2.253605103978718e-04

 167	1.670000000000001e+00
	-1.405701424272589e-16
	-6.214401284608982e-18
	-1.977807424760907e-15
	3.044891886451215e-05
	3.231875039787702e-04
	2.285900682789817e-04

 168	1.680000000000001e+00
	-1.392867796966180e-16
	-6.877990083458986e-18
	-1.979430701566629e-15
	3.107769246103469e-05
	3.235408742476074e-04
	2.318233023349073e-04

 169	1.690000000000001e+00
	-1.380053561599297e-16
	-7.573486291928638e-18
	-1.981030312421805e-15
	3.171656617791172e-05
	3.238656590170528e-04
	2.350599245709920e-04

 170	1.700000000000001e+00
	-1.367258698226914e-16
	-8.302496962519810e-18
	-1.982605691011896e-15
	3.236574429049190e-05
	3.241622842920827e-04
	2.382996513162824e-04

 171	1.710000000000001e+00
	-1.354483244665539e-16
	-9.066707701312282e-18
	-1.984156217169931e-15
	3.302543777983918e-05
	3.244311631901936e-04
	2.415422030944876e-04

 172	1.720000000000001e+00
	-1.341727298456119e-16
	-9.867885557941584e-18
	-1.985681215464348e-15
	3.369586454783645e-05
	3.246726959761677e-04
	2.447873044952814e-04

 173	1.730000000000001e+00
	-1.328991019003253e-16
	-1.070788187102730e-17
	-1.987179953735692e-15
	3.437724963913818e-05
	3.248872700978712e-04
	2.480346840459571e-04

 174	1.740000000000001e+00
	-1.316274629880270e-16
	-1.158863504200583e-17
	-1.988651641596914e-15
	3.506982547019166e-05
	3.250752602224395e-04
	2.512840740834409e-04

 175	1.750000000000001e+00
	-1.303578421287656e-16
	-1.251217320658774e-17
	-1.990095428913954e-15
	3.577383206554830e-05
	3.252370282722445e-04
	2.545352106266729e-04

 176	1.760000000000001e+00