Title: **.subckt gm_id_nmos
Date: Tue Jun  1 20:08:56  2021
Plotname: DC transfer characteristic
Flags: real
No. Variables: 7
No. Points: 181
Variables:
	0	v(v-sweep)	voltage
	1	@m.xm1.msky130_fd_pr__nfet_01v8[cgb]	capacitance
	2	@m.xm1.msky130_fd_pr__nfet_01v8[cgd]	capacitance
	3	@m.xm1.msky130_fd_pr__nfet_01v8[cgs]	capacitance
	4	@m.xm1.msky130_fd_pr__nfet_01v8[gds]	admittance
	5	@m.xm1.msky130_fd_pr__nfet_01v8[gm]	admittance
	6	i(@m.xm1.msky130_fd_pr__nfet_01v8[id])	current
Values:
 0	0.000000000000000e+00
	-6.530491504143914e-16
	1.628512568974113e-20
	-9.566290452191098e-18
	1.261744196027347e-14
	6.528079681760675e-13
	2.313364909569108e-14

 1	1.000000000000000e-02
	-6.499210219689331e-16
	1.725615442031527e-20
	-1.021364608056309e-17
	1.669551665852701e-14
	8.656274010054692e-13
	3.067585345682624e-14

 2	2.000000000000000e-02
	-6.468207948333442e-16
	1.828953703369002e-20
	-1.091475124739828e-17
	2.209145315547113e-14
	1.147818999660852e-12
	4.067682610680173e-14

 3	3.000000000000000e-02
	-6.437464707403147e-16
	1.939009835599163e-20
	-1.167472080714334e-17
	2.923103906231922e-14
	1.521991479837553e-12
	5.393802563993395e-14

 4	4.000000000000000e-02
	-6.406959679438917e-16
	2.056297964025902e-20
	-1.249916243648670e-17
	3.867758925727551e-14
	2.018119567324211e-12
	7.152209962861777e-14

 5	5.000000000000000e-02
	-6.376671125167570e-16
	2.181363755991644e-20
	-1.339421499043677e-17
	5.117634759368032e-14
	2.675942677228487e-12
	9.483797570289643e-14

 6	6.000000000000000e-02
	-6.346576293464726e-16
	2.314784029016914e-20
	-1.436658887736218e-17
	6.771321486905753e-14
	3.548144073917172e-12
	1.257536590201853e-13

 7	7.000000000000001e-02
	-6.316651328184338e-16
	2.457166044570218e-20
	-1.542360852914183e-17
	8.959242088842388e-14
	4.704564133127628e-12
	1.667457497338380e-13

 8	8.000000000000000e-02
	-6.286871171745075e-16
	2.609146462759073e-20
	-1.657325703726415e-17
	1.185392446465872e-13
	6.237783569555153e-12
	2.210976223247122e-13

 9	9.000000000000000e-02
	-6.257209465392803e-16
	2.771389930747851e-20
	-1.782422301298795e-17
	1.568358499715622e-13
	8.270521311751740e-12
	2.931620860269790e-13

 10	9.999999999999999e-02
	-6.227638446113792e-16
	2.944587274021633e-20
	-1.918594970660652e-17
	2.075008970209157e-13
	1.096543564254922e-11
	3.887094786131957e-13

 11	1.100000000000000e-01
	-6.198128840260725e-16
	3.129453254463826e-20
	-2.066868638389261e-17
	2.745270138348605e-13
	1.453810753608162e-11
	5.153889393253984e-13

 12	1.200000000000000e-01
	-6.168649754084165e-16
	3.326723852363007e-20
	-2.228354190294993e-17
	3.631947315474374e-13
	1.927423664400071e-11
	6.833395953519128e-13

 13	1.300000000000000e-01
	-6.139168561544690e-16
	3.537153020733626e-20
	-2.404254035744336e-17
	4.804874502696761e-13
	2.555241262795103e-11
	9.060002850952767e-13

 14	1.400000000000000e-01
	-6.109650790026440e-16
	3.761508849639497e-20
	-2.595867854777666e-17
	6.356398683167870e-13
	3.387426315131745e-11
	1.201182160251065e-12

 15	1.500000000000000e-01
	-6.080060004891501e-16
	4.000569065592958e-20
	-2.804598490529021e-17
	8.408626773044496e-13
	4.490435849108737e-11
	1.592489281829006e-12

 16	1.600000000000000e-01
	-6.050357694216484e-16
	4.255115776768629e-20
	-3.031957932109846e-17
	1.112299989626853e-12
	5.952301551530661e-11
	2.111199763655331e-12

 17	1.700000000000000e-01
	-6.020503155545791e-16
	4.525929359121065e-20
	-3.279573311622485e-17
	1.471293958254526e-12
	7.889614837299388e-11
	2.798756237493101e-12

 18	1.800000000000000e-01
	-5.990453387087934e-16
	4.813781362150996e-20
	-3.549192812932094e-17
	1.946054726665248e-12
	1.045676349320073e-10
	3.710062194725013e-12

 19	1.900000000000000e-01
	-5.960162986475100e-16
	5.119426296897689e-20
	-3.842691358944046e-17
	2.573864979261258e-12
	1.385814047422549e-10
	4.917843739735886e-12

 20	2.000000000000000e-01
	-5.929584061002254e-16
	5.443592153883202e-20
	-4.162075908264789e-17
	3.403989258288434e-12
	1.836427332281865e-10
	6.518419228652276e-12

 21	2.100000000000000e-01
	-5.898666154155902e-16
	5.786969486620671e-20
	-4.509490151297370e-17
	4.501511875134733e-12
	2.433312123113405e-10
	8.639328372658448e-12

 22	2.200000000000001e-01
	-5.867356194222827e-16
	6.150198888636469e-20
	-4.887218350349245e-17
	5.952397568626961e-12
	3.223817714146234e-10
	1.144941573782836e-11

 23	2.300000000000001e-01
	-5.835598471816421e-16
	6.533856690751981e-20
	-5.297688018847967e-17
	7.870161090558018e-12
	4.270552160436331e-10
	1.517215165648961e-11

 24	2.400000000000001e-01
	-5.803334654243800e-16
	6.938438712903868e-20
	-5.743471082342472e-17
	1.040465212439055e-11
	5.656263794032022e-10
	2.010321993252225e-11

 25	2.500000000000001e-01
	-5.770503845719836e-16
	7.364341923573383e-20
	-6.227283110219262e-17
	1.375361870109931e-11
	7.490265828642973e-10
	2.663372382612656e-11

 26	2.600000000000001e-01
	-5.737042703459535e-16
	7.811843892621819e-20
	-6.751980154205928e-17
	1.817791620531792e-11
	9.916882217527891e-10
	3.528078200260801e-11

 27	2.700000000000001e-01
	-5.702885620572839e-16
	8.281079972850672e-20
	-7.320552680950056e-17
	2.402149366615297e-11
	1.312653614567044e-09
	4.672783291524477e-11

 28	2.800000000000001e-01
	-5.667964987376191e-16
	8.772018214098311e-20
	-7.936116044272635e-17
	3.173763129537360e-11
	1.737028610166207e-09
	6.187767549389061e-11

 29	2.900000000000001e-01
	-5.632211543076813e-16
	9.284432104445253e-20
	-8.601896914504621e-17
	4.192334441094699e-11
	2.297884845873766e-09
	8.192219129130457e-11

 30	3.000000000000001e-01
	-5.595554829717490e-16
	9.817871346250840e-20
	-9.321215070584325e-17
	5.536443515613596e-11
	3.038744178099524e-09
	1.084338745643099e-10

 31	3.100000000000001e-01
	-5.557923759602309e-16
	1.037163101225595e-19
	-1.009745997394584e-16
	7.309439674686856e-11
	4.016816035599151e-09
	1.434858111856163e-10

 32	3.200000000000001e-01
	-5.519247306054955e-16
	1.094471958696980e-19
	-1.093406158675213e-16
	9.647129358930312e-11
	5.307204790363816e-09
	1.898086782480037e-10

 33	3.300000000000001e-01
	-5.479455325143361e-16
	1.153582657842047e-19
	-1.183445497810260e-16
	1.272778993208351e-10
	7.008361295767998e-09
	2.509957828591107e-10

 34	3.400000000000001e-01
	-5.438479512823142e-16
	1.214329057955744e-19
	-1.280203838654672e-16
	1.678518246020519e-10
	9.249122037872181e-09
	3.317702358164148e-10

 35	3.500000000000001e-01
	-5.396254497726295e-16
	1.276506885883554e-19
	-1.384012458064102e-16
	2.212541629060842e-10
	1.219776212504595e-08
	4.383321925900430e-10

 36	3.600000000000002e-01
	-5.352719064519309e-16
	1.339870975438806e-19
	-1.495188558434608e-16
	2.914873824914752e-10
	1.607358519919930e-08
	5.788088288591722e-10

 37	3.700000000000002e-01
	-5.307817496420650e-16
	1.404132932121438e-19
	-1.614029111077146e-16
	3.837758483426500e-10
	2.116168372518935e-08
	7.638354899455594e-10

 38	3.800000000000002e-01
	-5.261501018234737e-16
	1.468959381882539e-19
	-1.740804137210605e-16
	5.049255065651514e-10
	2.783162458054788e-08
	1.007303387790582e-09

 39	3.900000000000002e-01
	-5.213729313371357e-16
	1.533970970877438e-19
	-1.875749529675129e-16
	6.637829129536471e-10
	3.656094225831529e-08
	1.327317403417457e-09

 40	4.000000000000002e-01
	-5.164472080132101e-16
	1.598742283791393e-19
	-2.019059557248908e-16
	8.718178922207502e-10
	4.796444637982458e-08
	1.747417005271643e-09

 41	4.100000000000002e-01
	-5.113710584530899e-16
	1.662802839572028e-19
	-2.170879232726781e-16
	1.143858546283881e-09
	6.283045788752098e-08
	2.298123920197816e-09

 42	4.200000000000002e-01
	-5.061439159643252e-16
	1.725639303769732e-19
	-2.331296763202008e-16
	1.499011836614255e-09
	8.216516006780139e-08
	3.018891735765166e-09

 43	4.300000000000002e-01
	-5.007666595586351e-16
	1.786699025254459e-19
	-2.500336333395613e-16
	1.961807120643318e-09
	1.072462618691154e-07
	3.960544592510470e-09

 44	4.400000000000002e-01
	-4.952417360380140e-16
	1.845394961735920e-19
	-2.677951497294932e-16
	2.563603169581378e-09
	1.396870934803073e-07
	5.188303797931633e-09

 45	4.500000000000002e-01
	-4.895732590751299e-16
	1.901112004155350e-19
	-2.864019466719090e-16
	3.344300394896022e-09
	1.815120597315095e-07
	6.785511529401441e-09

 46	4.600000000000002e-01
	-4.837670793937110e-16
	1.953214646650341e-19
	-3.058336584986168e-16
	4.354398001472331e-09
	2.352440451453859e-07
	8.858168508899381e-09

 47	4.700000000000003e-01
	-4.778308207068064e-16
	2.001055879556759e-19
	-3.260615257545360e-16
	5.657428984777332e-09
	3.040038938500232e-07
	1.154040622613199e-08

 48	4.800000000000003e-01
	-4.717738769863523e-16
	2.043987111950429e-19
	-3.470482578165249e-16
	7.332792466326074e-09
	3.916215097114848e-07
	1.500101269354636e-08

 49	4.900000000000003e-01
	-4.656073678983773e-16
	2.081368862434276e-19
	-3.687480839190274e-16
	9.478980919131138e-09
	5.027575162059305e-07
	1.945112311611180e-08

 50	5.000000000000002e-01
	-4.593440507959193e-16
	2.112581897487955e-19
	-3.911070049040694e-16
	1.221716773785437e-08
	6.430339167103066e-07
	2.515317359910219e-08

 51	5.100000000000002e-01
	-4.529981894380216e-16
	2.137038450822251e-19
	-4.140632502506606e-16
	1.569507748054134e-08
	8.191719864379728e-07
	3.243119905094288e-08

 52	5.200000000000002e-01
	-4.465853814945411e-16
	2.154193129257657e-19
	-4.375479363730113e-16
	2.009100747272170e-08
	1.039135899682043e-06
	4.168253963876708e-08

 53	5.300000000000002e-01
	-4.401223487822489e-16
	2.163553103935867e-19
	-4.614859133320539e-16
	2.561780793729697e-08
	1.312281476420324e-06
	5.339100906904294e-08

 54	5.400000000000003e-01
	-4.336266959300018e-16
	2.164687201837127e-19
	-4.857967785607076e-16
	3.252656367449330e-08
	1.649510864978798e-06
	6.814157860227390e-08

 55	5.500000000000003e-01
	-4.271166446667965e-16
	2.157233551428336e-19
	-5.103960285433298e-16
	4.110966168142882e-08
	2.063435592628196e-06
	8.663664705608524e-08

 56	5.600000000000003e-01
	-4.206107520603009e-16
	2.140905495703359e-19
	-5.351963131451039e-16
	5.170288640617509e-08
	2.568551431794822e-06
	1.097139973823008e-07

 57	5.700000000000003e-01
	-4.141276217261739e-16
	2.115495562038802e-19
	-5.601087528858352e-16
	6.468616891025270e-08
	3.181427763797358e-06
	1.383665730999013e-07

 58	5.800000000000003e-01
	-4.076856172363007e-16
	2.080877365925387e-19
	-5.850442771779891e-16
	8.048263800434056e-08
	3.920910191087500e-06
	1.737642182187369e-07

 59	5.900000000000003e-01
	-4.013025866716792e-16
	2.037005418612319e-19
	-6.099149415147439e-16
	9.955568621635108e-08
	4.808326887949226e-06
	2.172774744118899e-07

 60	6.000000000000003e-01
	-3.949956065261365e-16
	1.983912900613942e-19
	-6.346351837373156e-16
	1.224038704965372e-07
	5.867676226999655e-06
	2.705033730495449e-07

 61	6.100000000000003e-01
	-3.887807520370824e-16
	1.921707547808299e-19
	-6.591229836050128e-16
	1.495536085150242e-07
	7.125756598576182e-06
	3.352928541470829e-07

 62	6.200000000000003e-01
	-3.826728995918591e-16
	1.850565869335127e-19
	-6.833008955734857e-16
	1.815497913728865e-07
	8.612181797934908e-06
	4.137789648944474e-07

 63	6.300000000000003e-01
	-3.766855652415411e-16
	1.770725972796022e-19
	-7.070969315004844e-16
	2.189445942631214e-07
	1.035921122442917e-05
	5.084043485585529e-07

 64	6.400000000000003e-01
	-3.708307816621767e-16
	1.682479310062837e-19
	-7.304452774400374e-16
	2.622849107631613e-07
	1.240131863554648e-05
	6.219457900910185e-07

 65	6.500000000000004e-01
	-3.651190142449440e-16
	1.586161675598620e-19
	-7.532868362535199e-16
	3.120989514341096e-07
	1.477443124976987e-05
	7.575328494679862e-07

 66	6.600000000000004e-01
	-3.595591154663492e-16
	1.482143789377155e-19
	-7.755695950007342e-16
	3.688826270076308e-07
	1.751479582049620e-05
	9.186570412903608e-07

 67	6.700000000000004e-01
	-3.541583153619264e-16
	1.370821780302953e-19
	-7.972488225938744e-16
	4.330863795199358e-07
	2.065747013875903e-05
	1.109167781356522e-06

 68	6.800000000000004e-01
	-3.489222448529570e-16
	1.252607856428731e-19
	-8.182871087183580e-16
	5.051031319633005e-07
	2.423449363191787e-05
	1.333251573108740e-06

 69	6.900000000000004e-01
	-3.438549878821058e-16
	1.127921408732729e-19
	-8.386542593697307e-16
	5.852579974841445e-07
	2.827285165517525e-05
	1.595391747695788e-06

 70	7.000000000000004e-01
	-3.389591578046323e-16
	9.971807494052290e-20
	-8.583270674526364e-16
	6.738003191944414e-07
	3.279240384090657e-05
	1.900307505744647e-06

 71	7.100000000000004e-01
	-3.342359932416809e-16
	8.607956369991204e-20
	-8.772889787562605e-16
	7.708984967530390e-07
	3.780398522924198e-05
	2.252872924002405e-06

 72	7.200000000000004e-01
	-3.296854686012627e-16
	7.191606925190298e-20
	-8.955296743558582e-16
	8.766378949944047e-07
	4.330789901721122e-05
	2.658018754998878e-06

 73	7.300000000000004e-01
	-3.253064146712284e-16
	5.726497650862857e-20
	-9.130445902412675e-16
	9.910219300998678e-07
	4.929299532832878e-05
	3.120621943796374e-06

 74	7.400000000000004e-01
	-3.210966450422986e-16
	4.216112651118094e-20
	-9.298343939224552e-16
	1.113976207471447e-06
	5.573647212221028e-05
	3.645389464230872e-06

 75	7.500000000000004e-01
	-3.170530845827304e-16
	2.663644481616178e-20
	-9.459044361044623e-16
	1.245355368455046e-06
	6.260445072886185e-05
	4.236744035584999e-06

 76	7.600000000000005e-01
	-3.131718967167631e-16
	1.071966045512304e-20
	-9.612641934511298e-16
	1.384952119291525e-06
	6.985328427069549e-05
	4.898719335696883e-06

 77	7.700000000000005e-01
	-3.094486068187914e-16
	-5.563891174322381e-21
	-9.759267161452478e-16
	1.532507789945406e-06
	7.743146988958201e-05
	5.634871459201528e-06

 78	7.800000000000005e-01
	-3.058782195928287e-16
	-2.219238963000089e-20
	-9.899080915545099e-16
	1.687723717253903e-06
	8.528197087971964e-05
	6.448211730341456e-06

 79	7.900000000000005e-01
	-3.024553288377208e-16
	-3.914758402430699e-20
	-1.003226932952278e-15
	1.850272767324836e-06
	9.334472250033783e-05
	7.341163849653858e-06

 80	8.000000000000005e-01
	-2.991742184850391e-16
	-5.641479038215087e-20
	-1.015903900014610e-15
	2.019810395049177e-06
	1.015590976921344e-04
	8.315546075808515e-06

 81	8.100000000000005e-01
	-2.960289542272541e-16
	-7.398284123700070e-20
	-1.027961255786848e-15
	2.195984764322749e-06
	1.098661411518982e-04
	9.372577046062022e-06

 82	8.200000000000005e-01
	-2.930134654226496e-16
	-9.184399661385466e-20
	-1.039422463026038e-15
	2.378445598375045e-06
	1.182104322613216e-04
	1.051290217202714e-05

 83	8.300000000000005e-01
	-2.901216172689720e-16
	-1.099938249733359e-19
	-1.050311821299333e-15
	2.566851574614530e-06
	1.265414974514419e-04
	1.173663645113413e-05

 84	8.400000000000005e-01
	-2.873472734818269e-16
	-1.284310619497009e-19
	-1.060654144956376e-15
	2.760876206879446e-06
	1.348147500729376e-04
	1.304341903355736e-05

 85	8.500000000000005e-01
	-2.846843499006758e-16
	-1.471574538734473e-19
	-1.070474481085197e-15
	2.960212260588923e-06
	1.429919831325488e-04
	1.443247491246928e-05

 86	8.600000000000005e-01
	-2.821268595807333e-16
	-1.661775921826113e-19
	-1.079797865787298e-15
	3.164574819686095e-06
	1.510414734541339e-04
	1.590267953772387e-05

 87	8.700000000000006e-01
	-2.796689500198809e-16
	-1.854987439383941e-19
	-1.088649116543291e-15
	3.373703169714135e-06
	1.589377743852500e-04
	1.745262284333859e-05

 88	8.800000000000006e-01
	-2.773049332228505e-16
	-2.051306828048372e-19
	-1.097052658058016e-15
	3.587361682996981e-06
	1.666612799453923e-04
	1.908066998880286e-05

 89	8.900000000000006e-01
	-2.750293093272180e-16
	-2.250855240512904e-19
	-1.105032378744784e-15
	3.805339895116285e-06
	1.741976394264491e-04
	2.078501693042768e-05

 90	9.000000000000006e-01
	-2.728367845136255e-16
	-2.453775664064997e-19
	-1.112611514904520e-15
	4.027451952192076e-06
	1.815370913519533e-04
	2.256373968233884e-05

 91	9.100000000000006e-01
	-2.707222839018194e-16
	-2.660231429421875e-19
	-1.119812559651534e-15
	4.253535590767160e-06
	1.886737724782446e-04
	2.441483675110680e-05

 92	9.200000000000006e-01
	-2.686809600996368e-16
	-2.870404825957143e-19
	-1.126657193710017e-15
	4.483450790278145e-06
	1.956050435900289e-04
	2.633626471492287e-05

 93	9.300000000000006e-01
	-2.667081980282677e-16
	-3.084495834545438e-19
	-1.133166235334178e-15
	4.717078215050172e-06
	2.023308608410718e-04
	2.832596726942308e-05

 94	9.400000000000006e-01
	-2.647996165974439e-16
	-3.302720985163254e-19
	-1.139359606772917e-15
	4.954317540426839e-06
	2.088532102506634e-04
	3.038189829222044e-05

 95	9.500000000000006e-01
	-2.629510654933856e-16
	-3.525312412161889e-19
	-1.145256322423182e-15
	5.195085962238302e-06
	2.151756214762613e-04
	3.250204215722798e-05

 96	9.600000000000006e-01
	-2.611586312119717e-16
	-3.752516680413880e-19
	-1.150874450793077e-15
	5.439315588455706e-06
	2.213027180435314e-04
	3.468441672831702e-05

 97	9.700000000000006e-01
	-2.594186182930253e-16
	-3.984594483771367e-19
	-1.156231163894399e-15
	5.686953166147921e-06
	2.272399147878762e-04
	3.692709803809190e-05

 98	9.800000000000006e-01
	-2.577275524738745e-16
	-4.221819698881711e-19
	-1.161342716344836e-15
	5.937957598568418e-06
	2.329931043318965e-04
	3.922821629002888e-05

 99	9.900000000000007e-01
	-2.560821709998903e-16
	-4.464478959702510e-19
	-1.166224471022468e-15
	6.192298719471126e-06
	2.385684410883709e-04
	4.158596210000839e-05

 100	1.000000000000001e+00
	-2.544794145270219e-16
	-4.712871266797134e-19
	-1.170890921955754e-15
	6.449955948717758e-06
	2.439721681938754e-04
	4.399858820780621e-05

 101	1.010000000000001e+00
	-2.529164184673809e-16
	-4.967307708673420e-19
	-1.175355721354495e-15
	6.710917066131177e-06
	2.492104874003172e-04
	4.646440967944657e-05

 102	1.020000000000001e+00
	-2.513905039752157e-16
	-5.228111289685029e-19
	-1.179631709757318e-15
	6.975177103785592e-06
	2.542894645160341e-04
	4.898180299241248e-05

 103	1.030000000000001e+00
	-2.498991687383039e-16
	-5.495616858951217e-19
	-1.183730948419909e-15
	7.242737353705861e-06
	2.592149636794425e-04
	5.154920432494621e-05

 104	1.040000000000001e+00
	-2.484400777112169e-16
	-5.770171134840848e-19
	-1.187664753201840e-15
	7.513604485727708e-06
	2.639926045609119e-04
	5.416510730750064e-05

 105	1.050000000000001e+00
	-2.470110539018191e-16
	-6.052132819781892e-19
	-1.191443729329074e-15
	7.787789768834000e-06
	2.686277374312851e-04
	5.682806043958624e-05

 106	1.060000000000001e+00
	-2.456100693005832e-16
	-6.341872800466732e-19
	-1.195077806514397e-15
	8.065308388444347e-06
	2.731254318489762e-04
	5.953666432875651e-05

 107	1.070000000000001e+00
	-2.442352360234580e-16
	-6.639774428891813e-19
	-1.198576274010497e-15
	8.346178851746584e-06
	2.774904754666089e-04
	6.228956886979892e-05

 108	1.080000000000001e+00
	-2.428847977229201e-16
	-6.946233880095201e-19
	-1.201947815250714e-15
	8.630422473101008e-06
	2.817273801246739e-04
	6.508547045062719e-05

 109	1.090000000000001e+00
	-2.415571213081618e-16
	-7.261660582900393e-19
	-1.205200541802012e-15
	8.918062931723382e-06
	2.858403929772743e-04
	6.792310924600742e-05

 110	1.100000000000001e+00
	-2.402506890037994e-16
	-7.586477720442426e-19
	-1.208342026414425e-15
	9.209125894187706e-06
	2.898335108849827e-04
	7.080126664021913e-05

 111	1.110000000000001e+00
	-2.389640907668829e-16
	-7.921122797726170e-19
	-1.211379335002053e-15
	9.503638694729609e-06
	2.937104967180055e-04
	7.371876280422685e-05

 112	1.120000000000001e+00
	-2.376960170739633e-16
	-8.266048273933915e-19
	-1.214319057433835e-15
	9.801630066827943e-06
	2.974748965473900e-04
	7.667445444108270e-05

 113	1.130000000000001e+00
	-2.364452520834517e-16
	-8.621722257669943e-19
	-1.217167337048455e-15
	1.010312992007087e-05
	3.011300569723133e-04
	7.966723270448208e-05

 114	1.140000000000001e+00
	-2.352106671731903e-16
	-8.988629263778872e-19
	-1.219929898837988e-15
	1.040816915684297e-05
	3.046791420466933e-04
	8.269602128897505e-05

 115	1.150000000000001e+00
	-2.339912148489060e-16
	-9.367271030819010e-19
	-1.222612076269797e-15
	1.071677952389264e-05
	3.081251494374117e-04
	8.575977468586681e-05

 116	1.160000000000001e+00
	-2.327859230158868e-16
	-9.758167398697793e-19
	-1.225218836736654e-15
	1.102899349433695e-05
	3.114709255771706e-04
	8.885747659583481e-05

 117	1.170000000000001e+00
	-2.315938896036417e-16
	-1.016185724638765e-18
	-1.227754805641561e-15
	1.134484417613310e-05
	3.147191796745695e-04
	9.198813848745229e-05

 118	1.180000000000001e+00
	-2.304142775313793e-16
	-1.057889949003762e-18
	-1.230224289136982e-15
	1.166436524348152e-05
	3.178724965183293e-04
	9.515079828981479e-05

 119	1.190000000000001e+00
	-2.292463100007360e-16
	-1.100987414217898e-18
	-1.232631295548528e-15
	1.198759088803015e-05
	3.209333480669169e-04
	9.834451920713530e-05

 120	1.200000000000001e+00
	-2.280892661012617e-16
	-1.145538343308830e-18
	-1.234979555521165e-15
	1.231455578711579e-05
	3.239041038533174e-04
	1.015683886432751e-04

 121	1.210000000000001e+00
	-2.269424767135542e-16
	-1.191605299573280e-18
	-1.237272540931929e-15
	1.264529508661276e-05
	3.267870402609565e-04
	1.048215172246329e-04

 122	1.220000000000001e+00
	-2.258053206946814e-16
	-1.239253311606283e-18
	-1.239513482617458e-15
	1.297984439625871e-05
	3.295843487435611e-04
	1.081030379104475e-04

 123	1.230000000000001e+00
	-2.246772213304605e-16
	-1.288550005075441e-18
	-1.241705386967524e-15
	1.331823979559774e-05
	3.322981430714379e-04
	1.114121051803705e-04

 124	1.240000000000001e+00
	-2.235576430393344e-16
	-1.339565741483328e-18
	-1.243851051437470e-15
	1.366051784892023e-05
	3.349304656910265e-04
	1.147478942899934e-04

 125	1.250000000000001e+00
	-2.224460883128555e-16
	-1.392373764193088e-18
	-1.245953079033306e-15
	1.400671562779459e-05
	3.374832932851133e-04
	1.181096005859124e-04

 126	1.260000000000001e+00
	-2.213420948782188e-16
	-1.447050352024178e-18
	-1.248013891823231e-15
	1.435687073997417e-05
	3.399585416189104e-04
	1.214964388727582e-04

 127	1.270000000000001e+00
	-2.202452330687741e-16
	-1.503674980756366e-18
	-1.250035743528778e-15
	1.471102136363139e-05
	3.423580697531599e-04
	1.249076428254603e-04

 128	1.280000000000001e+00
	-2.191551033890077e-16
	-1.562330492911366e-18
	-1.252020731247798e-15
	1.506920628601899e-05
	3.446836837002123e-04
	1.283424644408042e-04

 129	1.290000000000001e+00
	-2.180713342610880e-16
	-1.623103276212514e-18
	-1.253970806360030e-15
	1.543146494578819e-05
	3.469371395931363e-04
	1.318001735230651e-04

 130	1.300000000000001e+00
	-2.169935799406932e-16
	-1.686083451154400e-18
	-1.255887784664370e-15
	1.579783747830787e-05
	3.491201464317036e-04
	1.352800571991694e-04

 131	1.310000000000001e+00
	-2.159215185904887e-16
	-1.751365068145146e-18
	-1.257773355795054e-15
	1.616836476342923e-05
	3.512343684628705e-04
	1.387814194594514e-04

 132	1.320000000000001e+00
	-2.148548505002558e-16
	-1.819046314716710e-18
	-1.259629091961938e-15
	1.654308847522783e-05
	3.532814272472795e-04
	1.423035807206114e-04

 133	1.330000000000001e+00
	-2.137932964433213e-16
	-1.889229733329896e-18
	-1.261456456057963e-15
	1.692205113333085e-05
	3.552629034575117e-04
	1.458458774079649e-04

 134	1.340000000000001e+00
	-2.127365961595628e-16
	-1.962022450333798e-18
	-1.263256809174721e-15
	1.730529615550473e-05
	3.571803384483778e-04
	1.494076615545123e-04

 135	1.350000000000001e+00
	-2.116845069558707e-16
	-2.037536416672768e-18
	-1.265031417564871e-15
	1.769286791123539e-05
	3.590352356345164e-04
	1.529883004147245e-04

 136	1.360000000000001e+00
	-2.106368024155459e-16
	-2.115888660967594e-18
	-1.266781459087981e-15
	1.808481177608428e-05
	3.608290617059806e-04
	1.565871760912769e-04

 137	1.370000000000001e+00
	-2.095932712086723e-16
	-2.197201555632007e-18
	-1.268508029174265e-15
	1.848117418664615e-05
	3.625632477083371e-04
	1.602036851732477e-04

 138	1.380000000000001e+00
	-2.085537159960479e-16
	-2.281603096721433e-18
	-1.270212146338598e-15
	1.888200269597330e-05
	3.642391900100894e-04
	1.638372383845411e-04

 139	1.390000000000001e+00
	-2.075179524197831e-16
	-2.369227198245826e-18
	-1.271894757275154e-15
	1.928734602936234e-05
	3.658582511769129e-04
	1.674872602415096e-04

 140	1.400000000000001e+00
	-2.064858081741450e-16
	-2.460214001715934e-18
	-1.273556741561129e-15
	1.969725414042845e-05
	3.674217607692659e-04
	1.711531887189273e-04

 141	1.410000000000001e+00
	-2.054571221507160e-16
	-2.554710201728857e-18
	-1.275198915996064e-15
	2.011177826741638e-05
	3.689310160773627e-04
	1.748344749236213e-04

 142	1.420000000000001e+00
	-2.044317436523500e-16
	-2.652869388436570e-18
	-1.276822038601582e-15
	2.053097098971744e-05
	3.703872828052440e-04
	1.785305827751935e-04

 143	1.430000000000001e+00
	-2.034095316708334e-16
	-2.754852407779596e-18
	-1.278426812304590e-15
	2.095488628458054e-05
	3.717917957137272e-04
	1.822409886933743e-04

 144	1.440000000000001e+00
	-2.023903542235414e-16
	-2.860827740405883e-18
	-1.280013888325432e-15
	2.138357958402015e-05
	3.731457592303253e-04
	1.859651812916402e-04

 145	1.450000000000001e+00
	-2.013740877447437e-16
	-2.970971900234071e-18
	-1.281583869290911e-15
	2.181710783193714e-05
	3.744503480327763e-04
	1.897026610767962e-04

 146	1.460000000000001e+00
	-2.003606165275474e-16
	-3.085469853658420e-18
	-1.283137312090682e-15
	2.225552954148002e-05
	3.757067076115741e-04
	1.934529401542882e-04

 147	1.470000000000001e+00
	-1.993498322127913e-16
	-3.204515460431199e-18
	-1.284674730494152e-15
	2.269890485268343e-05
	3.769159548158413e-04
	1.972155419390588e-04

 148	1.480000000000001e+00
	-1.983416333214908e-16
	-3.328311937295478e-18
	-1.286196597543737e-15
	2.314729559042917e-05
	3.780791783859902e-04
	2.009900008717965e-04

 149	1.490000000000001e+00
	-1.973359248277222e-16
	-3.457072345478215e-18
	-1.287703347739097e-15
	2.360076532278161e-05
	3.791974394758607e-04
	2.047758621404586e-04

 150	1.500000000000001e+00
	-1.963326177690752e-16
	-3.591020103188098e-18
	-1.289195379025917e-15
	2.405937941975611e-05
	3.802717721663988e-04
	2.085726814069772e-04

 151	1.510000000000001e+00
	-1.953316288920583e-16
	-3.730389524295781e-18
	-1.290673054601627e-15
	2.452320511258290e-05
	3.813031839724174e-04
	2.123800245390646e-04

 152	1.520000000000001e+00
	-1.943328803300574e-16
	-3.875426384405083e-18
	-1.292136704549587e-15
	2.499231155353539e-05
	3.822926563435581e-04
	2.161974673470655e-04

 153	1.530000000000001e+00
	-1.933362993116484e-16
	-4.026388515549783e-18
	-1.293586627312236e-15
	2.546676987639286e-05
	3.832411451601988e-04
	2.200245953257888e-04

 154	1.540000000000001e+00
	-1.923418178972770e-16
	-4.183546430774882e-18
	-1.295023091012906e-15
	2.594665325761318e-05
	3.841495812248025e-04
	2.238610034012813e-04

 155	1.550000000000001e+00
	-1.913493727424692e-16
	-4.347183979878795e-18
	-1.296446334635166e-15
	2.643203697829299e-05
	3.850188707489446e-04
	2.277062956824949e-04

 156	1.560000000000001e+00
	-1.903589048859352e-16
	-4.517599037604755e-18
	-1.297856569067824e-15
	2.692299848699507e-05
	3.858498958360969e-04
	2.315600852178026e-04

 157	1.570000000000001e+00
	-1.893703595610503e-16
	-4.695104225574753e-18
	-1.299253978023017e-15
	2.741961746352550e-05
	3.866435149600971e-04
	2.354219937563248e-04

 158	1.580000000000001e+00
	-1.883836860293671e-16
	-4.880027669255977e-18
	-1.300638718834173e-15
	2.792197588374464e-05
	3.874005634391381e-04
	2.392916515140189e-04

 159	1.590000000000001e+00
	-1.873988374349291e-16
	-5.072713791234682e-18
	-1.302010923140047e-15
	2.843015808549774e-05
	3.881218539050225e-04
	2.431686969444838e-04

 160	1.600000000000001e+00
	-1.864157706782793e-16
	-5.273524142048667e-18
	-1.303370697460466e-15
	2.894425083575406e-05
	3.888081767673896e-04
	2.470527765144395e-04

 161	1.610000000000001e+00
	-1.854344463091824e-16
	-5.482838269787274e-18
	-1.304718123668939e-15
	2.946434339904221e-05
	3.894603006725721e-04
	2.509435444838175e-04

 162	1.620000000000001e+00
	-1.844548284371693e-16
	-5.701054629615669e-18
	-1.306053259366798e-15
	2.999052760727357e-05
	3.900789729567310e-04
	2.548406626904140e-04

 163	1.630000000000001e+00
	-1.834768846591101e-16
	-5.928591534304540e-18
	-1.307376138163166e-15
	3.052289793104645e-05
	3.906649200929079e-04
	2.587438003390484e-04

 164	1.640000000000001e+00
	-1.825005860031258e-16
	-6.165888146751840e-18
	-1.308686769864630e-15
	3.106155155252334e-05
	3.912188481316300e-04
	2.626526337951558e-04

 165	1.650000000000001e+00
	-1.815259068882001e-16
	-6.413405515366273e-18
	-1.309985140578194e-15
	3.160658843997845e-05
	3.917414431347254e-04
	2.665668463827576e-04

 166	1.660000000000001e+00
	-1.805528250989516e-16
	-6.671627653034570e-18
	-1.311271212730790e-15
	3.215811142411059e-05
	3.922333716020064e-04
	2.704861281867327e-04

 167	1.670000000000001e+00
	-1.795813217750796e-16
	-6.941062660220428e-18
	-1.312544925008373e-15
	3.271622627622049e-05
	3.926952808905127e-04
	2.744101758593168e-04

 168	1.680000000000001e+00
	-1.786113814150468e-16
	-7.222243892530548e-18
	-1.313806192217423e-15
	3.328104178835295e-05
	3.931277996260186e-04
	2.783386924307635e-04

 169	1.690000000000001e+00
	-1.776429918936274e-16
	-7.515731172834047e-18
	-1.315054905071528e-15
	3.385266985550369e-05
	3.935315381065379e-04
	2.822713871240721e-04

 170	1.700000000000001e+00
	-1.766761444929847e-16
	-7.822112047728795e-18
	-1.316290929905570e-15
	3.443122555999585e-05
	3.939070886975850e-04
	2.862079751737162e-04

 171	1.710000000000001e+00
	-1.757108339469637e-16
	-8.142003087805384e-18
	-1.317514108320014e-15
	3.501682725812990e-05
	3.942550262189717e-04
	2.901481776482798e-04

 172	1.720000000000001e+00
	-1.747470584983392e-16
	-8.476051230765462e-18
	-1.318724256757740e-15
	3.560959666921418e-05
	3.945759083229578e-04
	2.940917212769199e-04

 173	1.730000000000001e+00
	-1.737848199687469e-16
	-8.824935165994871e-18
	-1.319921166015883e-15
	3.620965896708437e-05
	3.948702758635760e-04
	2.980383382795636e-04

 174	1.740000000000001e+00
	-1.728241238410531e-16
	-9.189366758673088e-18
	-1.321104600695283e-15
	3.681714287422341e-05
	3.951386532570105e-04
	3.019877662007606e-04

 175	1.750000000000001e+00
	-1.718649793539157e-16
	-9.570092510906827e-18
	-1.322274298590207e-15
	3.743218075859290e-05