Title: **.subckt gm_id_nmos
Date: Tue Jun  1 20:11:05  2021
Plotname: DC transfer characteristic
Flags: real
No. Variables: 7
No. Points: 181
Variables:
	0	v(v-sweep)	voltage
	1	@m.xm1.msky130_fd_pr__nfet_01v8[cgb]	capacitance
	2	@m.xm1.msky130_fd_pr__nfet_01v8[cgd]	capacitance
	3	@m.xm1.msky130_fd_pr__nfet_01v8[cgs]	capacitance
	4	@m.xm1.msky130_fd_pr__nfet_01v8[gds]	admittance
	5	@m.xm1.msky130_fd_pr__nfet_01v8[gm]	admittance
	6	i(@m.xm1.msky130_fd_pr__nfet_01v8[id])	current
Values:
 0	0.000000000000000e+00
	-9.725019916408052e-16
	1.095169022276109e-19
	-3.082008542774421e-17
	2.672312541729529e-14
	2.622687323900150e-12
	1.004074826948645e-13

 1	1.000000000000000e-02
	-9.655582033922003e-16
	1.177657089281175e-19
	-3.300379859209337e-17
	3.468860927563519e-14
	3.405398749885613e-12
	1.303777968701762e-13

 2	2.000000000000000e-02
	-9.586973831357841e-16
	1.267592226130252e-19
	-3.538263971397157e-17
	4.502781217438745e-14
	4.421632981635918e-12
	1.692921046257887e-13

 3	3.000000000000000e-02
	-9.519115812358563e-16
	1.365717789757347e-19
	-3.797580728868215e-17
	5.844782255027494e-14
	5.741028939587176e-12
	2.198187084152249e-13

 4	4.000000000000000e-02
	-9.451926267432944e-16
	1.472846837160839e-19
	-4.080393957090332e-17
	7.586622055539834e-14
	7.453974021445597e-12
	2.854215444710015e-13

 5	5.000000000000000e-02
	-9.385320948863392e-16
	1.589867313550287e-19
	-4.389020057127154e-17
	9.847367320914866e-14
	9.677785379448633e-12
	3.705972264863406e-13

 6	6.000000000000000e-02
	-9.319212729204977e-16
	1.717747409617997e-19
	-4.725956918702320e-17
	1.278151231286746e-13
	1.256471703786374e-11
	4.811826572558499e-13

 7	7.000000000000001e-02
	-9.253511306612843e-16
	1.857540923383906e-19
	-5.093914070522070e-17
	1.658950560021579e-13
	1.631234797118583e-11
	6.247540844013300e-13

 8	8.000000000000000e-02
	-9.188122906161803e-16
	2.010392631850847e-19
	-5.495831757773210e-17
	2.153139842839876e-13
	2.117705124216544e-11
	8.111447861712860e-13

 9	9.000000000000000e-02
	-9.122949999068653e-16
	2.177543551413414e-19
	-5.934893959525091e-17
	2.794453676488543e-13
	2.749145357979789e-11
	1.053116540282222e-12

 10	9.999999999999999e-02
	-9.057891047406310e-16
	2.360335963532365e-19
	-6.414540770468762e-17
	3.626649034370696e-13
	3.568706264238591e-11
	1.367230416035110e-12

 11	1.100000000000000e-01
	-8.992840283011202e-16
	2.560218056214390e-19
	-6.938479768594938e-17
	4.706476196314523e-13
	4.632358333780113e-11
	1.774975848677745e-12

 12	1.200000000000000e-01
	-8.927687530775570e-16
	2.778748002907392e-19
	-7.510695918632657e-17
	6.107527176197084e-13
	6.012688859093261e-11
	2.304234295130366e-12

 13	1.300000000000000e-01
	-8.862318088052781e-16
	3.017597269487600e-19
	-8.135459484638590e-17
	7.925219318187162e-13
	7.803818171783575e-11
	2.991176162841029e-12

 14	1.400000000000000e-01
	-8.796612673434638e-16
	3.278552907896782e-19
	-8.817331346170714e-17
	1.028324668047007e-12
	1.012776229763024e-10
	3.882718598473459e-12

 15	1.500000000000000e-01
	-8.730447459605746e-16
	3.563518562839890e-19
	-9.561165033961654e-17
	1.334192823542311e-12
	1.314266374761306e-10
	5.039708975596953e-12

 16	1.600000000000000e-01
	-8.663694206246765e-16
	3.874513887299692e-19
	-1.037210472680250e-16
	1.730900577379274e-12
	1.705343330995621e-10
	6.541046899601276e-12

 17	1.700000000000000e-01
	-8.596220509933810e-16
	4.213672035386131e-19
	-1.125557838631153e-16
	2.245360328898442e-12
	2.212550080687443e-10
	8.489019271687999e-12

 18	1.800000000000000e-01
	-8.527890188531164e-16
	4.583234879509330e-19
	-1.221728515615939e-16
	2.912426310234563e-12
	2.870257094843920e-10
	1.101620225606914e-11

 19	1.900000000000000e-01
	-8.458563817557256e-16
	4.985545585695727e-19
	-1.326317612376304e-16
	3.777223409037949e-12
	3.722953303704644e-10
	1.429438573075359e-11

 20	2.000000000000000e-01
	-8.388099435266352e-16
	5.423038178972393e-19
	-1.439942754267512e-16
	4.898151911676010e-12
	4.828199447205714e-10
	1.854610609891998e-11

 21	2.100000000000000e-01
	-8.316353431582088e-16
	5.898223743192549e-19
	-1.563240565043965e-16
	6.350761083428868e-12
	6.260431517426538e-10
	2.405953989271313e-11

 22	2.200000000000001e-01
	-8.243181633403762e-16
	6.413672929509330e-19
	-1.696862229697677e-16
	8.232738046524236e-12
	8.115853445035636e-10
	3.120772303977691e-11

 23	2.300000000000001e-01
	-8.168440595071201e-16
	6.971994497713765e-19
	-1.841468072930918e-16
	1.067032612384312e-11
	1.051872291618798e-09
	4.047333095379383e-11

 24	2.400000000000001e-01
	-8.091989097835059e-16
	7.575809687370623e-19
	-1.997721106568977e-16
	1.382657211409895e-11
	1.362941531046587e-09
	5.248059754511275e-11

 25	2.500000000000001e-01
	-8.013689856060838e-16
	8.227722311825355e-19
	-2.166279523718646e-16
	1.791190896167842e-11
	1.765475184454171e-09
	6.803638494530635e-11

 26	2.600000000000001e-01
	-7.933411420545790e-16
	8.930284589994079e-19
	-2.347788148302533e-16
	2.319771385681820e-11
	2.286120329777368e-09
	8.818296227599490e-11

 27	2.700000000000001e-01
	-7.851030261032110e-16
	9.685958874823667e-19
	-2.542868884771554e-16
	3.003364760537902e-11
	2.959173493829413e-09
	1.142657376521284e-10

 28	2.800000000000001e-01
	-7.766433000834703e-16
	1.049707560337988e-18
	-2.752110254292794e-16
	3.886978561885431e-11
	3.828724673869690e-09
	1.480200443881369e-10

 29	2.900000000000001e-01
	-7.679518766884537e-16
	1.136578797567996e-18
	-2.976056148957226e-16
	5.028480127670205e-11
	4.951379129228050e-09
	1.916821470616004e-10

 30	3.000000000000001e-01
	-7.590201608791288e-16
	1.229402406202122e-18
	-3.215193983118709e-16
	6.502176643818926e-11
	6.399702577824269e-09
	2.481309484299716e-10

 31	3.100000000000001e-01
	-7.498412931257408e-16
	1.328343723339075e-18
	-3.469942468766243e-16
	8.403349947480242e-11
	8.266567943402794e-09
	3.210684926160280e-10

 32	3.200000000000001e-01
	-7.404103875884255e-16
	1.433535599685624e-18
	-3.740639287407535e-16
	1.085398260099404e-10
	1.067061992022996e-08
	4.152493271851950e-10

 33	3.300000000000001e-01
	-7.307247581689415e-16
	1.545073448667773e-18
	-4.027528971579846e-16
	1.400996282367771e-10
	1.376311773665876e-08
	5.367711648596892e-10

 34	3.400000000000001e-01
	-7.207841249088395e-16
	1.663010500062061e-18
	-4.330751341935992e-16
	1.807011499659577e-10
	1.773646684673348e-08
	6.934421359124013e-10

 35	3.500000000000001e-01
	-7.105907930222390e-16
	1.787353406803902e-18
	-4.650330868057760e-16
	2.328746981980287e-10
	2.283480695585672e-08
	8.952433076716926e-10

 36	3.600000000000002e-01
	-7.001497969785816e-16
	1.918058358103369e-18
	-4.986167330140574e-16
	2.998326358109917e-10
	2.936708682546109e-08
	1.154909131486511e-09

 37	3.700000000000002e-01
	-6.894690025233555e-16
	2.055027850349072e-18
	-5.338028152368456e-16
	3.856423870398672e-10
	3.772312589750239e-08
	1.488653124266030e-09

 38	3.800000000000002e-01
	-6.785591603563970e-16
	2.198108258879273e-18
	-5.705542755714524e-16
	4.954390664160894e-10
	4.839323974240590e-08
	1.917071470153356e-09

 39	3.900000000000002e-01
	-6.674339063707292e-16
	2.347088338267031e-18
	-6.088199237504291e-16
	6.356852783843325e-10
	6.199209286476056e-08
	2.466263421112421e-09

 40	4.000000000000002e-01
	-6.561097048601177e-16
	2.501698756424889e-18
	-6.485343627808757e-16
	8.144866052697184e-10
	7.928754325421484e-08
	3.169214499932703e-09

 41	4.100000000000002e-01
	-6.446057328779215e-16
	2.661612739148960e-18
	-6.896181900130487e-16
	1.041972298796316e-09
	1.012353670697344e-07
	4.067496748649514e-09

 42	4.200000000000002e-01
	-6.329437058996638e-16
	2.826447867701773e-18
	-7.319784828534923e-16
	1.330751723027121e-09
	1.290209134955167e-07
	5.213349918301632e-09

 43	4.300000000000002e-01
	-6.211476470153901e-16
	2.995769034097751e-18
	-7.755095688978714e-16
	1.696458194968282e-09
	1.641089602938229e-07
	6.672219039099588e-09

 44	4.400000000000002e-01
	-6.092436039515824e-16
	3.169092518671972e-18
	-8.200940703541422e-16
	2.158393087589389e-09
	2.083033468360301e-07
	8.525837962988061e-09

 45	4.500000000000002e-01
	-5.972593201864938e-16
	3.345891114282175e-18
	-8.656042027552230e-16
	2.740284461570325e-09
	2.638183809639298e-07
	1.087596623191365e-08

 46	4.600000000000002e-01
	-5.852238681696886e-16
	3.525600183232685e-18
	-9.119032986441091e-16
	3.471176100055704e-09
	3.333645646296706e-07
	1.384890922421674e-08

 47	4.700000000000003e-01
	-5.731672540886108e-16
	3.707624498785921e-18
	-9.588475186586456e-16
	4.386464518505970e-09
	4.202518414669092e-07
	1.760098020397986e-08

 48	4.800000000000003e-01
	-5.611200046616938e-16
	3.891345694821467e-18
	-1.006287705701725e-15
	5.529102883495597e-09
	5.285142461330896e-07
	2.232509836278957e-08

 49	4.900000000000003e-01
	-5.491127470222123e-16
	4.076130126357566e-18
	-1.054071333022933e-15
	6.950990826470516e-09
	6.630603191771729e-07
	2.825875845084364e-08

 50	5.000000000000002e-01
	-5.371757928609190e-16
	4.261336931348598e-18
	-1.102044494310305e-15
	8.714566091026951e-09
	8.298535601411786e-07
	3.569365146657978e-08

 51	5.100000000000002e-01
	-5.253387376199903e-16
	4.446326080968812e-18
	-1.150053883414732e-15
	1.089460500211160e-08
	1.036125941261555e-06
	4.498725360975640e-08

 52	5.200000000000002e-01
	-5.136300847070902e-16
	4.630466211458284e-18
	-1.197948713079283e-15
	1.358022013324790e-08
	1.290624332737124e-06
	5.657671701425989e-08

 53	5.300000000000002e-01
	-5.020769034843044e-16
	4.813142044963789e-18
	-1.245582525862022e-15
	1.687701111055007e-08
	1.603883785395916e-06
	7.099536734442634e-08

 54	5.400000000000003e-01
	-4.907045282619089e-16
	4.993761228566423e-18
	-1.292814856040759e-15
	2.090927493461928e-08
	1.988512380606252e-06
	8.889200950842457e-08

 55	5.500000000000003e-01
	-4.795363037858135e-16
	5.171760448369609e-18
	-1.339512708295865e-15
	2.582211513514504e-08
	2.459459815599380e-06
	1.110530296162370e-07

 56	5.600000000000003e-01
	-4.685933808517850e-16
	5.346610707367697e-18
	-1.385551826942471e-15
	3.178320950099382e-08
	3.034227164660533e-06
	1.384269303311597e-07

 57	5.700000000000003e-01
	-4.578945638104384e-16
	5.517821689944852e-18
	-1.430817737959252e-15
	3.898391653738007e-08
	3.732960922279728e-06
	1.721504376743528e-07

 58	5.800000000000003e-01
	-4.474562099379706e-16
	5.684945170401568e-18
	-1.475206554579941e-15
	4.763934157998440e-08
	4.578364540460734e-06
	2.135746932302079e-07

 59	5.900000000000003e-01
	-4.372921790190066e-16
	5.847577456144448e-18
	-1.518625545354350e-15
	5.798697035991527e-08
	5.595360143519165e-06
	2.642893652957738e-07

 60	6.000000000000003e-01
	-4.274138300822167e-16
	6.005360886635292e-18
	-1.560993470994613e-15
	7.028353562716893e-08
	6.810446466103028e-06
	3.261418931271020e-07

 61	6.100000000000003e-01
	-4.178300610891380e-16
	6.157984435725749e-18
	-1.602240702725458e-15
	8.479992629120172e-08
	8.250728690606300e-06
	4.012486734162459e-07

 62	6.200000000000003e-01
	-4.085473865244522e-16
	6.305183486813532e-18
	-1.642309140070739e-15
	1.018141747285957e-07
	9.942640311147192e-06
	4.919949666557129e-07

 63	6.300000000000003e-01
	-3.995700472749292e-16
	6.446738866923459e-18
	-1.681151949939614e-15
	1.216028387117948e-07
	1.191043030640849e-05
	6.010207646268679e-07

 64	6.400000000000003e-01
	-3.909001469012170e-16
	6.582475237258988e-18
	-1.718733151514863e-15
	1.444313800453098e-07
	1.417454059905372e-05
	7.311908577737832e-07

 65	6.500000000000004e-01
	-3.825378083751395e-16
	6.712258944201274e-18
	-1.755027072854809e-15
	1.705443709786990e-07
	1.675003704339412e-05
	8.855487984469900e-07

 66	6.600000000000004e-01
	-3.744813455394029e-16
	6.835995436602312e-18
	-1.790017705417669e-15
	2.001564750622743e-07
	1.964527155439706e-05
	1.067256183557521e-06

 67	6.700000000000004e-01
	-3.667274439053261e-16
	6.953626353140169e-18
	-1.823697982059777e-15
	2.334451164618175e-07
	2.286093780884912e-05
	1.279520405700180e-06

 68	6.800000000000004e-01
	-3.592713458941172e-16
	7.065126378193183e-18
	-1.856069002627314e-15
	2.705455693881684e-07
	2.638963937545627e-05
	1.525515449534878e-06

 69	6.900000000000004e-01
	-3.521070362061082e-16
	7.170499956896906e-18
	-1.887139229241809e-15
	3.115489005833553e-07
	3.021602509407849e-05
	1.808301190847604e-06

 70	7.000000000000004e-01
	-3.452274236312758e-16
	7.269777950510766e-18
	-1.916923670955137e-15
	3.565028416727870e-07
	3.431747457670501e-05
	2.130746844853162e-06

 71	7.100000000000004e-01
	-3.386245162593718e-16
	7.363014302624659e-18
	-1.945443074787634e-15
	4.054153227524150e-07
	3.866525057357523e-05
	2.495463698072491e-06

 72	7.200000000000004e-01
	-3.322895876808075e-16
	7.450282775681485e-18
	-1.972723137409795e-15
	4.582601234577662e-07
	4.322598602172063e-05
	2.904751162858920e-06

 73	7.300000000000004e-01
	-3.262133323681893e-16
	7.531673806284669e-18
	-1.998793749005422e-15
	5.149839309133945e-07
	4.796334843419798e-05
	3.360558724865402e-06

 74	7.400000000000004e-01
	-3.203860089769728e-16
	7.607291517201375e-18
	-2.023688278258197e-15
	5.755140462889379e-07
	5.283972381689511e-05
	3.864464758326306e-06

 75	7.500000000000004e-01
	-3.147975707917272e-16
	7.677250914161573e-18
	-2.047442905004850e-15
	6.397660396140317e-07
	5.781778257337013e-05
	4.417671692546126e-06

 76	7.600000000000005e-01
	-3.094377829663163e-16
	7.741675286693945e-18
	-2.070096004943358e-15
	7.076507860576914e-07
	6.286182390029018e-05
	5.021015799636607e-06

 77	7.700000000000005e-01
	-3.042963265603118e-16
	7.800693824452837e-18
	-2.091687588901377e-15
	7.790804897488484e-07
	6.793883510723589e-05
	5.674989036529738e-06

 78	7.800000000000005e-01
	-2.993628896617326e-16
	7.854439453826106e-18
	-2.112258797567318e-15
	8.539734795932024e-07
	7.301924112383254e-05
	6.379769936211840e-06

 79	7.900000000000005e-01
	-2.946272461116465e-16
	7.903046894064637e-18
	-2.131851451261358e-15
	9.322577198671599e-07
	7.807735217745475e-05
	7.135260466006748e-06

 80	8.000000000000005e-01
	-2.900793225148758e-16
	7.946650927691890e-18
	-2.150507653261314e-15
	1.013873101552057e-06
	8.309154155935577e-05
	7.941125978178053e-06

 81	8.100000000000005e-01
	-2.857092543393840e-16
	7.985384876456136e-18
	-2.168269444378432e-15
	1.098772663150752e-06
	8.804419996023884e-05
	8.796835777787822e-06

 82	8.200000000000005e-01
	-2.815074319819864e-16
	8.019379271479561e-18
	-2.185178505874924e-15
	1.186922934319635e-06
	9.292151898391331e-05
	9.701702334615976e-06

 83	8.300000000000005e-01
	-2.774645377166168e-16
	8.048760704428014e-18
	-2.201275907400794e-15
	1.278303608815356e-06
	9.771315593945807e-05
	1.065491769418830e-05

 84	8.400000000000005e-01
	-2.735715744502933e-16
	8.073650845360686e-18
	-2.216601896374365e-15
	1.372906743639213e-06
	1.024118269552480e-04
	1.165558614162373e-05

 85	8.500000000000005e-01
	-2.698198871972156e-16
	8.094165612309906e-18
	-2.231195725111147e-15
	1.470735657400949e-06
	1.070128678141770e-04
	1.270275260564329e-05

 86	8.600000000000005e-01
	-2.662011781487711e-16
	8.110414477484519e-18
	-2.245095511994121e-15
	1.571803670061380e-06
	1.115137932808218e-04
	1.379542664119200e-05

 87	8.700000000000006e-01
	-2.627075161713089e-16
	8.122499895191820e-18
	-2.258338133051842e-15
	1.676132793788632e-06
	1.159138772348471e-04
	1.493260209401897e-05

 88	8.800000000000006e-01
	-2.593313415086393e-16
	8.130516837047318e-18
	-2.270959140448404e-15
	1.783752454289934e-06
	1.202137683679644e-04
	1.611327273494916e-05

 89	8.900000000000006e-01
	-2.560654664056960e-16
	8.134552420718609e-18
	-2.282992704573696e-15
	1.894698295701123e-06
	1.244151499143202e-04
	1.733644426655670e-05

 90	9.000000000000006e-01
	-2.529030723064708e-16
	8.134685619263228e-18
	-2.294471576638396e-15
	2.009011100775738e-06
	1.285204469725391e-04
	1.860114316393366e-05

 91	9.100000000000006e-01
	-2.498377042154346e-16
	8.130987039023536e-18
	-2.305427068913510e-15
	2.126735841742787e-06
	1.325325813743540e-04
	1.990642282776373e-05

 92	9.200000000000006e-01
	-2.468632608947091e-16
	8.123518792788507e-18
	-2.315889057718794e-15
	2.247920930116783e-06
	1.364547744069529e-04
	2.125136848903624e-05

 93	9.300000000000006e-01
	-2.439739925717958e-16
	8.112334230578038e-18
	-2.325885960003495e-15
	2.372617271360903e-06
	1.402903763657346e-04
	2.263509545369428e-05

 94	9.400000000000006e-01
	-2.411644783290551e-16
	8.097478089613983e-18
	-2.335444799564816e-15
	2.500878090752593e-06
	1.440427608869163e-04
	2.405675566584594e-05

 95	9.500000000000006e-01
	-2.384296214785118e-16
	8.078986291342087e-18
	-2.344591201782260e-15
	2.632758214113206e-06
	1.477152215055047e-04
	2.551553349073141e-05

 96	9.600000000000006e-01
	-2.357646345372286e-16
	8.056885953337786e-18
	-2.353349435898705e-15
	2.768313770010870e-06
	1.513109088338557e-04
	2.701064556229532e-05

 97	9.700000000000006e-01
	-2.331650256374958e-16
	8.031195378384213e-18
	-2.361742454561783e-15
	2.907601907260417e-06
	1.548327861914930e-04
	2.854133911582283e-05

 98	9.800000000000006e-01
	-2.306265846485804e-16
	8.001924053573411e-18
	-2.369791937572397e-15
	3.050680580696060e-06
	1.582836024078139e-04
	3.010688996611751e-05

 99	9.900000000000007e-01
	-2.281453691959685e-16
	7.969072654259877e-18
	-2.377518338732886e-15
	3.197608393763224e-06
	1.616658781065120e-04
	3.170660028402978e-05

 100	1.000000000000001e+00
	-2.257176907320985e-16
	7.932633048310931e-18
	-2.384940934844798e-15
	3.348444487832698e-06
	1.649819023153134e-04
	3.333979628992050e-05

 101	1.010000000000001e+00
	-2.233401007845097e-16
	7.892588296647954e-18
	-2.392077876047641e-15
	3.503248469538279e-06
	1.682337367569567e-04
	3.500582595366517e-05

 102	1.020000000000001e+00
	-2.210093774827608e-16
	7.848912646560122e-18
	-2.398946236816535e-15
	3.662080368786081e-06
	1.714232256477324e-04
	3.670405676676705e-05

 103	1.030000000000001e+00
	-2.187225124442106e-16
	7.801571514698905e-18
	-2.405562067048581e-15
	3.825000621320615e-06
	1.745520092482914e-04
	3.843387363253757e-05

 104	1.040000000000001e+00
	-2.164766980803959e-16
	7.750521457032965e-18
	-2.411940442766665e-15
	3.992070070835905e-06
	1.776215397745141e-04
	4.019467690462578e-05

 105	1.050000000000001e+00
	-2.142693153700593e-16
	7.695710123361965e-18
	-2.418095516055828e-15
	4.163349986575620e-06
	1.806330985848634e-04
	4.198588059183301e-05

 106	1.060000000000001e+00
	-2.120979221315811e-16
	7.637076194257682e-18
	-2.424040563922631e-15
	4.338902093181508e-06
	1.835878138184612e-04
	4.380691073765308e-05

 107	1.070000000000001e+00
	-2.099602418163518e-16
	7.574549298527904e-18
	-2.429788035833086e-15
	4.518788610230533e-06
	1.864866778700748e-04
	4.565720397581102e-05

 108	1.080000000000001e+00
	-2.078541528352616e-16
	7.508049909484211e-18
	-2.435349599740756e-15
	4.703072299464766e-06
	1.893305642598996e-04
	4.753620625783170e-05

 109	1.090000000000001e+00
	-2.057776784227677e-16
	7.437489218444379e-18
	-2.440736186464475e-15
	4.891816518176076e-06
	1.921202435930947e-04
	4.944337174495142e-05

 110	1.100000000000001e+00
	-2.037289770366401e-16
	7.362768984016917e-18
	-2.445958032315825e-15
	5.085085277579401e-06
	1.948563984118905e-04
	5.137816185421317e-05

 111	1.110000000000001e+00
	-2.017063332864085e-16
	7.283781355802210e-18
	-2.451024719910776e-15
	5.282943305302098e-06
	1.975396368265654e-04
	5.334004444703237e-05

 112	1.120000000000001e+00
	-1.997081493794424e-16
	7.200408671205188e-18
	-2.455945217128556e-15
	5.485456111351698e-06
	2.001705048751152e-04
	5.532849314772995e-05

 113	1.130000000000001e+00
	-1.977329370704530e-16
	7.112523224090318e-18
	-2.460727914204599e-15
	5.692690057106648e-06
	2.027494976087214e-04
	5.734298677927004e-05

 114	1.140000000000001e+00
	-1.957793100977777e-16
	7.019987004025716e-18
	-2.465380658964016e-15
	5.904712427016567e-06
	2.052770689344054e-04
	5.938300890359304e-05

 115	1.150000000000001e+00
	-1.938459770880392e-16
	6.922651404857603e-18
	-2.469910790217811e-15
	6.121591502807549e-06
	2.077536402702259e-04
	6.144804745437758e-05

 116	1.160000000000001e+00
	-1.919317349095761e-16
	6.820356901335430e-18
	-2.474325169356776e-15
	6.343396640070999e-06
	2.101796080842843e-04
	6.353759445070268e-05

 117	1.170000000000001e+00
	-1.900354624542073e-16
	6.712932692470881e-18
	-2.478630210188030e-15
	6.570198347176883e-06
	2.125553503984600e-04
	6.565114578084741e-05

 118	1.180000000000001e+00
	-1.881561148265242e-16
	6.600196310261666e-18
	-2.482831907066784e-15
	6.802068366499100e-06
	2.148812323427265e-04
	6.778820104630297e-05

 119	1.190000000000001e+00
	-1.862927179197778e-16
	6.481953192348699e-18
	-2.486935861381611e-15
	7.039079757974778e-06
	2.171576108472761e-04
	6.994826345693845e-05

 120	1.200000000000001e+00
	-1.844443633575611e-16
	6.357996217097901e-18
	-2.490947306455632e-15
	7.281306985045234e-06
	2.193848385584663e-04
	7.213083976913479e-05

 121	1.210000000000001e+00
	-1.826102037808159e-16
	6.228105199513042e-18
	-2.494871130928605e-15
	7.528826003043528e-06
	2.215632670615534e-04
	7.433544025953812e-05

 122	1.220000000000001e+00
	-1.807894484601992e-16
	6.092046346290497e-18
	-2.498711900686500e-15
	7.781714350107950e-06
	2.236932494888883e-04
	7.656157872790327e-05

 123	1.230000000000001e+00
	-1.789813592144032e-16
	5.949571668221346e-18
	-2.502473879405682e-15
	8.040051240709486e-06
	2.257751425871548e-04
	7.880877252325214e-05

 124	1.240000000000001e+00
	-1.771852466157612e-16
	5.800418348035420e-18
	-2.506161047778630e-15
	8.303917661888853e-06
	2.278093083117035e-04
	8.107654258828366e-05

 125	1.250000000000001e+00
	-1.754004664651912e-16
	5.644308061661162e-18
	-2.509777121487249e-15
	8.573396472304075e-06
	2.297961150103182e-04
	8.336441351762498e-05

 126	1.260000000000001e+00
	-1.736264165193342e-16
	5.480946250750176e-18
	-2.513325567988583e-15
	8.848572504193330e-06
	2.317359382530322e-04
	8.567191362610245e-05

 127	1.270000000000001e+00
	-1.718625334535860e-16
	5.310021344181301e-18
	-2.516809622175867e-15
	9.129532668362394e-06
	2.336291613590585e-04
	8.799857502375773e-05

 128	1.280000000000001e+00
	-1.701082900455278e-16
	5.131203926124662e-18
	-2.520232300975978e-15
	9.416366062308866e-06
	2.354761756665628e-04
	9.034393369481078e-05

 129	1.290000000000001e+00
	-1.683631925641171e-16
	4.944145848100927e-18
	-2.523596416941916e-15
	9.709164081599007e-06
	2.372773805859912e-04
	9.270752957820573e-05

 130	1.300000000000001e+00
	-1.666267783508235e-16
	4.748479282327918e-18
	-2.526904590896694e-15
	1.000802053461729e-05
	2.390331834729849e-04
	9.508890664776336e-05

 131	1.310000000000001e+00
	-1.648986135797078e-16
	4.543815713497172e-18
	-2.530159263682299e-15
	1.031303176081164e-05
	2.407439993525920e-04
	9.748761299029161e-05

 132	1.320000000000001e+00
	-1.631782911842379e-16
	4.329744865972137e-18
	-2.533362707064945e-15
	1.062429675256352e-05
	2.424102505225393e-04
	9.990320088031715e-05

 133	1.330000000000001e+00
	-1.614654289394028e-16
	4.105833563250153e-18
	-2.536517033845108e-15
	1.094191728081451e-05
	2.440323660597288e-04
	1.023352268503448e-04

 134	1.340000000000001e+00
	-1.597596676884262e-16
	3.871624516377168e-18
	-2.539624207218227e-15
	1.126599802458918e-05
	2.456107812508868e-04
	1.047832517557908e-04

 135	1.350000000000001e+00
	-1.580606697041033e-16
	3.626635037858917e-18
	-2.542686049429408e-15
	1.159664670455696e-05
	2.471459369653822e-04
	1.072468408339203e-04

 136	1.360000000000001e+00
	-1.563681171754502e-16
	3.370355677464552e-18
	-2.545704249762836e-15
	1.193397422078402e-05
	2.486382789856259e-04
	1.097255637562903e-04

 137	1.370000000000001e+00
	-1.546817108110224e-16
	3.102248776182000e-18
	-2.548680371904135e-15
	1.227809479483146e-05
	2.500882573081639e-04
	1.122189946743433e-04

 138	1.380000000000001e+00
	-1.530011685508662e-16
	2.821746934453659e-18
	-2.551615860711541e-15
	1.262912611636387e-05
	2.514963254265203e-04
	1.147267122579137e-04

 139	1.390000000000001e+00
	-1.513262243796598e-16
	2.528251390701528e-18
	-2.554512048429338e-15
	1.298718949443870e-05
	2.528629396050634e-04
	1.172482997265119e-04

 140	1.400000000000001e+00
	-1.496566272341582e-16
	2.221130306047045e-18
	-2.557370160374796e-15
	1.335241001365559e-05
	2.541885581515756e-04
	1.197833448733387e-04

 141	1.410000000000001e+00
	-1.479921399985764e-16
	1.899716951044168e-18
	-2.560191320127731e-15
	1.372491669535163e-05
	2.554736406948395e-04
	1.223314400820472e-04

 142	1.420000000000001e+00
	-1.463325385820561e-16
	1.563307790181163e-18
	-2.562976554249658e-15
	1.410484266403682e-05
	2.567186474723506e-04
	1.248921823363270e-04

 143	1.430000000000001e+00
	-1.446776110728124e-16
	1.211160459870139e-18
	-2.565726796557675e-15
	1.449232531927355e-05
	2.579240386322344e-04
	1.274651732224418e-04

 144	1.440000000000001e+00
	-1.430271569640124e-16
	8.424916356416423e-19
	-2.568442891976275e-15
	1.488750651320958e-05
	2.590902735525430e-04
	1.300500189248666e-04

 145	1.450000000000001e+00
	-1.413809864468618e-16
	4.564747842983735e-19
	-2.571125599988573e-15
	1.529053273398521e-05
	2.602178101803494e-04
	1.326463302152194e-04

 146	1.460000000000001e+00
	-1.397389197667381e-16
	5.223779686761696e-20
	-2.573775597706816e-15
	1.570155529524290e-05
	2.613071043923975e-04
	1.352537224346958e-04

 147	1.470000000000001e+00
	-1.381007866386091e-16
	-3.711395016670752e-19
	-2.576393482580523e-15
	1.612073053197480e-05
	2.623586093785081e-04
	1.378718154702198e-04

 148	1.480000000000001e+00
	-1.364664257183157e-16
	-8.146279696687162e-19
	-2.578979774759115e-15
	1.654822000295426e-05
	2.633727750484742e-04
	1.405002337245513e-04

 149	1.490000000000001e+00
	-1.348356841265965e-16
	-1.279251896714252e-18
	-2.581534919124719e-15
	1.698419070000425e-05
	2.643500474627854e-04
	1.431386060805820e-04

 150	1.500000000000001e+00
	-1.332084170230661e-16
	-1.766091885187754e-18
	-2.584059287009555e-15
	1.742881526436402e-05
	2.652908682871937e-04
	1.457865658600617e-04

 151	1.510000000000001e+00
	-1.315844872276474e-16
	-2.276287868285752e-18
	-2.586553177611238e-15
	1.788227221042294e-05
	2.661956742708532e-04
	1.484437507769873e-04

 152	1.520000000000001e+00
	-1.299637648871826e-16
	-2.811042266533936e-18
	-2.589016819118462e-15
	1.834474615709847e-05
	2.670648967475613e-04
	1.511098028858935e-04

 153	1.530000000000001e+00
	-1.283461271852347e-16
	-3.371623284191895e-18
	-2.591450369558689e-15
	1.881642806714142e-05
	2.678989611594345e-04
	1.537843685252700e-04

 154	1.540000000000001e+00
	-1.267314580933154e-16
	-3.959368346048905e-18
	-2.593853917378671e-15
	1.929751549465828e-05
	2.686982866022185e-04
	1.564670982563251e-04

 155	1.550000000000001e+00
	-1.251196481619573e-16
	-4.575687674068508e-18
	-2.596227481768317e-15
	1.978821284114599e-05
	2.694632853913195e-04
	1.591576467973094e-04

 156	1.560000000000001e+00
	-1.235105943502774e-16
	-5.222068002105910e-18
	-2.598571012737793e-15
	2.028873162033963e-05
	2.701943626475604e-04
	1.618556729536013e-04

 157	1.570000000000001e+00
	-1.219041998928249e-16
	-5.900076425462368e-18
	-2.600884390957673e-15
	2.079929073217616e-05
	2.708919159016022e-04
	1.645608395437449e-04

 158	1.580000000000001e+00
	-1.203003742026820e-16
	-6.611364380353727e-18
	-2.603167427371772e-15
	2.132011674618119e-05
	2.715563347159310e-04
	1.672728133216209e-04

 159	1.590000000000001e+00
	-1.186990328099008e-16
	-7.357671746402210e-18
	-2.605419862592528e-15
	2.185144419458679e-05
	2.721880003232905e-04
	1.699912648949274e-04

 160	1.600000000000001e+00
	-1.171000973344941e-16
	-8.140831063005702e-18
	-2.607641366088989e-15
	2.239351587548609e-05
	2.727872852804124e-04
	1.727158686401175e-04

 161	1.610000000000001e+00
	-1.155034954932792e-16
	-8.962771847854281e-18
	-2.609831535178064e-15
	2.294658316633073e-05
	2.733545531359205e-04
	1.754463026139506e-04

 162	1.620000000000001e+00
	-1.139091611399471e-16
	-9.825525002928094e-18
	-2.611989893830399e-15
	2.351090634807096e-05
	2.738901581112701e-04
	1.781822484617903e-04

 163	1.630000000000001e+00
	-1.123170343377579e-16
	-1.073122728998442e-17
	-2.614115891303232e-15
	2.408675494023162e-05
	2.743944447936200e-04
	1.809233913227728e-04

 164	1.640000000000001e+00
	-1.107270614643111e-16
	-1.168212585381169e-17
	-2.616208900613848e-15
	2.467440804720735e-05
	2.748677478395480e-04
	1.836694197319599e-04

 165	1.650000000000001e+00
	-1.091391953477794e-16
	-1.268058276734201e-17
	-2.618268216868719e-15
	2.527415471604782e-05
	2.753103916885557e-04
	1.864200255195810e-04

 166	1.660000000000001e+00
	-1.075533954339876e-16
	-1.372907956807251e-17
	-2.620293055465279e-15
	2.588629430598621e-05
	2.757226902853433e-04
	1.891749037074562e-04

 167	1.670000000000001e+00
	-1.059696279836042e-16
	-1.483022175010434e-17
	-2.622282550185399e-15
	2.651113686994329e-05
	2.761049468098707e-04
	1.919337524026803e-04

 168	1.680000000000001e+00
	-1.043878662985937e-16
	-1.598674317046711e-17
	-2.624235751202068e-15
	2.714900354821485e-05
	2.764574534142733e-04
	1.946962726886483e-04

 169	1.690000000000001e+00
	-1.028080909769129e-16
	-1.720151032223206e-17
	-2.626151623023582e-15
	2.780022697451718e-05
	2.767804909657348e-04
	1.974621685134772e-04

 170	1.700000000000001e+00
	-1.012302901942245e-16
	-1.847752642024626e-17
	-2.628029042402676e-15
	2.846515169452899e-05
	2.770743287944789e-04
	2.002311465758852e-04

 171	1.710000000000001e+00
	-9.965446001109685e-17
	-1.981793523813107e-17
	-2.629866796241593e-15
	2.914413459702499e-05
	2.773392244460947e-04
	2.030029162085752e-04

 172	1.720000000000001e+00
	-9.808060470389208e-17
	-2.122602462753615e-17
	-2.631663579527831e-15
	2.983754535764184e-05
	2.775754234374576e-04
	2.057771892591592e-04

 173	1.730000000000001e+00
	-9.650873711710930e-17
	-2.270522964254542e-17
	-2.633417993339616e-15
	3.054576689525957e-05
	2.777831590155792e-04
	2.085536799686595e-04

 174	1.740000000000001e+00
	-9.493887903453417e-17
	-2.425913518367319e-17
	-2.635128542964627e-15
	3.126919584090863e-05
	2.779626519187712e-04
	2.113321048476107e-04

 175	1.750000000000001e+00
	-9.337106156604784e-17
	-2.589147806715817e-17
	-2.636793636180297e-15
	3.200824301903240e-05
	2.781141101395883e-04
	2.141121825497824e-04
