Title: **.subckt gm_id_pmos
Date: Wed Jun  2 14:58:40  2021
Plotname: DC transfer characteristic
Flags: real
No. Variables: 7
No. Points: 181
Variables:
	0	v(v-sweep)	voltage
	1	@m.xm1.msky130_fd_pr__pfet_01v8[cgb]	capacitance
	2	@m.xm1.msky130_fd_pr__pfet_01v8[cgd]	capacitance
	3	@m.xm1.msky130_fd_pr__pfet_01v8[cgs]	capacitance
	4	@m.xm1.msky130_fd_pr__pfet_01v8[gds]	admittance
	5	@m.xm1.msky130_fd_pr__pfet_01v8[gm]	admittance
	6	i(@m.xm1.msky130_fd_pr__pfet_01v8[id])	current
Values:
 0	0.000000000000000e+00
	-7.934780066098964e-16
	5.715213048532131e-21
	-5.063435279664109e-18
	1.628566966297598e-16
	1.279630821805377e-14
	4.318354292639193e-16

 1	1.000000000000000e-02
	-7.853634917440876e-16
	6.163058595342308e-21
	-5.362402000124792e-18
	2.190244897543618e-16
	1.720913169887310e-14
	5.807748746656020e-16

 2	2.000000000000000e-02
	-7.774733452892325e-16
	6.644266802518487e-21
	-5.684364464092204e-18
	2.945604632750105e-16
	2.314333297561967e-14
	7.810745512443383e-16

 3	3.000000000000000e-02
	-7.697971796503045e-16
	7.161376824299235e-21
	-6.031007955849326e-18
	3.961412885821761e-16
	3.112320843975182e-14
	1.050440593205074e-15

 4	4.000000000000000e-02
	-7.623251324467105e-16
	7.717145871373279e-21
	-6.404162036004544e-18
	5.327441238028630e-16
	4.185361518974032e-14
	1.412680472116861e-15

 5	5.000000000000000e-02
	-7.550478290222041e-16
	8.314569783021055e-21
	-6.805813839652830e-18
	7.164386337071466e-16
	5.628208551884054e-14
	1.899803913857194e-15

 6	6.000000000000000e-02
	-7.479563468975242e-16
	8.956905161696336e-21
	-7.238122367783499e-18
	9.634513388280490e-16
	7.568227121383058e-14
	2.554846380143325e-15

 7	7.000000000000001e-02
	-7.410421820823526e-16
	9.647693093712319e-21
	-7.703433783478941e-18
	1.295595736819514e-15
	1.017660209533800e-13
	3.435663146858337e-15

 8	8.000000000000000e-02
	-7.342972171557022e-16
	1.039078447203314e-20
	-8.204297719395363e-18
	1.742193591256944e-15
	1.368338827908188e-13
	4.620026880924146e-15

 9	9.000000000000000e-02
	-7.277136910202331e-16
	1.119036693060735e-20
	-8.743484598776256e-18
	2.342655602907654e-15
	1.839771539487127e-13
	6.212475385385443e-15

 10	9.999999999999999e-02
	-7.212841702347014e-16
	1.205099339450873e-20
	-9.324003968951983e-18
	3.149947023075829e-15
	2.473490525876704e-13
	8.353508590117923e-15

 11	1.100000000000000e-01
	-7.150015218295656e-16
	1.297761224658804e-20
	-9.949123844075069e-18
	4.235240516197346e-15
	3.325285334151662e-13
	1.123193791908283e-14

 12	1.200000000000000e-01
	-7.088588875127380e-16
	1.397559910951832e-20
	-1.062239105282641e-17
	5.694161210911580e-15
	4.470082037953751e-13
	1.510146415918475e-14

 13	1.300000000000000e-01
	-7.028496591752904e-16
	1.505079024204631e-20
	-1.134765258697478e-17
	7.655165995475269e-15
	6.008483697005187e-13
	2.030292486251593e-14

 14	1.400000000000000e-01
	-6.969674556102158e-16
	1.620951754985417e-20
	-1.212907794793211e-17
	1.029078210998103e-14
	8.075533071047642e-13
	2.729413961088098e-14

 15	1.500000000000000e-01
	-6.912061003609200e-16
	1.745864521445733e-20
	-1.297118249065365e-17
	1.383267400078001e-14
	1.085244534925701e-12
	3.668993143067750e-14

 16	1.600000000000000e-01
	-6.855596006198245e-16
	1.880560794765679e-20
	-1.387885176716099e-17
	1.859183204069821e-14
	1.458230622562310e-12
	4.931576841489941e-14

 17	1.700000000000000e-01
	-6.800221271011423e-16
	2.025845088369255e-20
	-1.485736687523487e-17
	2.498560805605363e-14
	1.959105794690104e-12
	6.627962101466000e-14

 18	1.800000000000000e-01
	-6.745879948158172e-16
	2.182587112577389e-20
	-1.591243082106788e-17
	3.357389457461809e-14
	2.631552742251444e-12
	8.906815896058329e-14

 19	1.900000000000000e-01
	-6.692516446803431e-16
	2.351726096720248e-20
	-1.705019590726145e-17
	4.510750139790379e-14
	3.534081735043552e-12
	1.196754364945379e-13

 20	2.000000000000000e-01
	-6.640076258953893e-16
	2.534275280890057e-20
	-1.827729215892807e-17
	6.059278146020643e-14
	4.745012313062040e-12
	1.607748899896677e-13

 21	2.100000000000000e-01
	-6.588505790345015e-16
	2.731326579360491e-20
	-1.960085680002815e-17
	8.137787094784059e-14
	6.369100455822673e-12
	2.159489968522058e-13

 22	2.200000000000001e-01
	-6.537752197879867e-16
	2.944055417096707e-20
	-2.102856478860838e-17
	1.092676290822471e-13
	8.546339283514141e-12
	2.899955727356458e-13

 23	2.300000000000001e-01
	-6.487763233127047e-16
	3.173725739586564e-20
	-2.256866041241385e-17
	1.466766073662280e-13
	1.146362238716188e-11
	3.893357365246685e-13

 24	2.400000000000001e-01
	-6.438487091447971e-16
	3.421695194277902e-20
	-2.422998993440494e-17
	1.968322909877919e-13
	1.537016447472777e-11
	5.225564504123585e-13

 25	2.500000000000001e-01
	-6.389872266398996e-16
	3.689420479045820e-20
	-2.602203526003834e-17
	2.640446126178513e-13
	2.059783398461890e-11
	7.011307394233874e-13

 26	2.600000000000001e-01
	-6.341867409141031e-16
	3.978462849168097e-20
	-2.795494857370673e-17
	3.540625510827966e-13
	2.758787724543342e-11
	9.403718072897571e-13

 27	2.700000000000001e-01
	-6.294421192691224e-16
	4.290493769085358e-20
	-3.003958785946308e-17
	4.745447375803418e-13
	3.692591412633612e-11
	1.260693996243663e-12

 28	2.800000000000001e-01
	-6.247482180970022e-16
	4.627300688606983e-20
	-3.228755318013420e-17
	6.356786707724622e-13
	4.938756972429949e-11
	1.689274687734085e-12

 29	2.900000000000001e-01
	-6.200998702733019e-16
	4.990792915033774e-20
	-3.471122353817221e-17
	8.509926725621887e-13
	6.599768002288109e-11
	2.262237679458153e-12

 30	3.000000000000001e-01
	-6.154918730632958e-16
	5.383007542769414e-20
	-3.732379408041024e-17
	1.138416366985063e-12
	8.810666799140440e-11
	3.027511179681947e-12

 31	3.100000000000001e-01
	-6.109189765833123e-16
	5.806115390258400e-20
	-4.013931333646089e-17
	1.521659442774980e-12
	1.174884127920868e-10
	4.048553111534030e-12

 32	3.200000000000001e-01
	-6.063758728788624e-16
	6.262426880409407e-20
	-4.317272009632019e-17
	2.031994839853321e-12
	1.564646896323741e-10
	5.409183420655079e-12

 33	3.300000000000001e-01
	-6.018571857030568e-16
	6.754397784971209e-20
	-4.643987943642874e-17
	2.710551119267560e-12
	2.080619713104721e-10
	7.219817496350801e-12

 34	3.400000000000001e-01
	-5.973574611023536e-16
	7.284634735546945e-20
	-4.995761729463127e-17
	3.611239098170764e-12
	2.762069428920836e-10
	9.625455715971590e-12

 35	3.500000000000001e-01
	-5.928711589424950e-16
	7.855900384054956e-20
	-5.374375287323147e-17
	4.804458774216315e-12
	3.659673249196029e-10
	1.281584920317907e-11

 36	3.600000000000002e-01
	-5.883926455348529e-16
	8.471118073465892e-20
	-5.781712801572181e-17
	6.381752312830415e-12
	4.838443081343276e-10
	1.703832693570151e-11

 37	3.700000000000002e-01
	-5.839161875525911e-16
	9.133375855626819e-20
	-6.219763255728041e-17
	8.461584713890900e-12
	6.381218033240128e-10
	2.261382766614855e-11

 38	3.800000000000002e-01
	-5.794359474564462e-16
	9.845929667035517e-20
	-6.690622449253034e-17
	1.119644202284955e-11
	8.392755087279424e-10
	2.995672218794746e-11

 39	3.900000000000002e-01
	-5.749459806814679e-16
	1.061220544570585e-19
	-7.196494363743338e-17
	1.478143305618511e-11
	1.100441233107701e-09
	3.959902490004403e-11

 40	4.000000000000002e-01
	-5.704402348675675e-16
	1.143579994336238e-19
	-7.739691728937384e-17
	1.946455961015546e-11
	1.437936857048682e-09
	5.221956396617267e-11

 41	4.100000000000002e-01
	-5.659125514495868e-16
	1.232047995631590e-19
	-8.322635620517361e-17
	2.555877755562851e-11
	1.871825917587438e-09
	6.867859214396134e-11

 42	4.200000000000002e-01
	-5.613566699517820e-16
	1.327017966880772e-19
	-8.947853904249335e-17
	3.345590466602773e-11
	2.426503667375169e-09
	9.005816476255131e-11

 43	4.300000000000002e-01
	-5.567662353619402e-16
	1.428899577114891e-19
	-9.617978322441181e-17
	4.364234209381380e-11
	3.131279815418238e-09
	1.177083854990515e-10

 44	4.400000000000002e-01
	-5.521348089849563e-16
	1.538117998644580e-19
	-1.033574000212547e-16
	5.671647312023021e-11
	4.020927935368592e-09
	1.532993385757561e-10

 45	4.500000000000002e-01
	-5.474558831965407e-16
	1.655112861287796e-19
	-1.110396314894243e-16
	7.340750139871244e-11
	5.136172252046489e-09
	1.988782242143271e-10

 46	4.600000000000002e-01
	-5.427229005312972e-16
	1.780336866594098e-19
	-1.192555667801583e-16
	9.459541635654544e-11
	6.524090883659357e-09
	2.569309557170102e-10

 47	4.700000000000003e-01
	-5.379292775585889e-16
	1.914254018426428e-19
	-1.280350030868154e-16
	1.213317571063291e-10
	8.238432317984617e-09
	3.304473489499900e-10

 48	4.800000000000003e-01
	-5.330684350674464e-16
	2.057337392781614e-19
	-1.374081813784880e-16
	1.548609123289189e-10
	1.033986839471997e-08
	4.229891171034467e-10

 49	4.900000000000003e-01
	-5.281338312502436e-16
	2.210066509212324e-19
	-1.474062046667655e-16
	1.966419131319520e-10
	1.289625945010642e-08
	5.387603976637000e-10

 50	5.000000000000002e-01
	-5.231190020433638e-16
	2.372924163492256e-19
	-1.580602090191455e-16
	2.483709518501493e-10
	1.598300625498117e-08
	6.826812582333022e-10

 51	5.100000000000002e-01
	-5.180176087806477e-16
	2.546392675582449e-19
	-1.694013595984859e-16
	3.120052767463660e-10
	1.968364822405044e-08
	8.604658310497682e-10

 52	5.200000000000002e-01
	-5.128234916592002e-16
	2.730949570765786e-19
	-1.814605904664022e-16
	3.897895965825372e-10
	2.409085352742712e-08
	1.078708254392156e-09

 53	5.300000000000002e-01
	-5.075307298242650e-16
	2.927062648986184e-19
	-1.942683078966315e-16
	4.842865616884684e-10
	2.930796151013881e-08
	1.344981149407301e-09

 54	5.400000000000003e-01
	-5.021337080347941e-16
	3.135184426813095e-19
	-2.078540564047822e-16
	5.984132505822775e-10
	3.545121724744952e-08
	1.667952877782869e-09

 55	5.500000000000003e-01
	-4.966271896931674e-16
	3.355745949758130e-19
	-2.222461475203038e-16
	7.354858053937022e-10
	4.265280398346818e-08
	2.057531062738507e-09

 56	5.600000000000003e-01
	-4.910063958107190e-16
	3.589149989120590e-19
	-2.374712523328781e-16
	8.992744074720350e-10
	5.106474018848448e-08
	2.525040716974729e-09

 57	5.700000000000003e-01
	-4.852670892361879e-16
	3.835763657207144e-19
	-2.535539600419109e-16
	1.094070686644410e-09
	6.086367709995749e-08
	3.083445822064201e-09

 58	5.800000000000003e-01
	-4.794056631997954e-16
	4.095910497576369e-19
	-2.705163061178550e-16
	1.324769468370824e-09
	7.225662151286272e-08
	3.747623486688418e-09

 59	5.900000000000003e-01
	-4.734192329269101e-16
	4.369862132604657e-19
	-2.883772752280844e-16
	1.596966554362763e-09
	8.548762408603790e-08
	4.534700112902644e-09

 60	6.000000000000003e-01
	-4.673057287606600e-16
	4.657829578634069e-19
	-3.071522857548472e-16
	1.917074071432435e-09
	1.008455161389275e-07
	5.464459594469240e-09

 61	6.100000000000003e-01
	-4.610639889137874e-16
	4.959954368420435e-19
	-3.268526644870027e-16
	2.292454855278694e-09
	1.186728430384955e-07
	6.559834710991104e-09

 62	6.200000000000003e-01
	-4.546938496615571e-16
	5.276299650451461e-19
	-3.474851218332385e-16
	2.731577373706807e-09
	1.393762219843281e-07
	7.847494752511301e-09

 63	6.300000000000003e-01
	-4.481962305071789e-16
	5.606841463539260e-19
	-3.690512395962672e-16
	3.244192818757866e-09
	1.634384380111536e-07
	9.358545115308519e-09

 64	6.400000000000003e-01
	-4.415732116192958e-16
	5.951460411231894e-19
	-3.915469848637164e-16
	3.841536165247270e-09
	1.914326773404594e-07
	1.112935817739117e-08

 65	6.500000000000004e-01
	-4.348281006793625e-16
	6.309933982155087e-19
	-4.149622647994789e-16
	4.536553142914660e-09
	2.240393763874859e-07
	1.320255915649795e-08

 66	6.600000000000004e-01
	-4.279654862069384e-16
	6.681929777384211e-19
	-4.392805379398633e-16
	5.344155128537656e-09
	2.620662327779693e-07
	1.562819578828799e-08

 67	6.700000000000004e-01
	-4.209912744735227e-16
	7.066999912373236e-19
	-4.644784978951790e-16
	6.281503852495101e-09
	3.064719750197832e-07
	1.846512639582332e-08

 68	6.800000000000004e-01
	-4.139127072874420e-16
	7.464576857029126e-19
	-4.905258450246232e-16
	7.368327441483763e-09
	3.583945091484096e-07
	2.178266702623341e-08

 69	6.900000000000004e-01
	-4.067383582448656e-16
	7.873970961752629e-19
	-5.173851606072450e-16
	8.627268582301597e-09
	4.191840359545670e-07
	2.566254443836081e-08

 70	7.000000000000004e-01
	-3.994781054993092e-16
	8.294369888761293e-19
	-5.450118962254353e-16
	1.008426437061466e-08
	4.904416342067226e-07
	3.020120724557947e-08

 71	7.100000000000004e-01
	-3.921430796987609e-16
	8.724840126553141e-19
	-5.733544885032865e-16
	1.176895556451555e-08
	5.740635954029964e-07
	3.551255153465219e-08

 72	7.200000000000004e-01
	-3.847455864606420e-16
	9.164330711593717e-19
	-6.023546060451052e-16
	1.371512034215087e-08
	6.722914243614080e-07
	4.173111843847045e-08

 73	7.300000000000004e-01
	-3.772990035743756e-16
	9.611679216757032e-19
	-6.319475314981002e-16
	1.596112411207730e-08
	7.877668284777634e-07
	4.901581753552445e-08

 74	7.400000000000004e-01
	-3.698176540040239e-16
	1.006561999317833e-18
	-6.620626772710312e-16
	1.855037231906969e-08
	9.235901452274580e-07
	5.755421906966560e-08

 75	7.500000000000004e-01
	-3.623166566657918e-16
	1.052479457426373e-18
	-6.926242287783191e-16
	2.153174747849443e-08
	1.083379451598900e-06
	6.756743674158489e-08

 76	7.600000000000005e-01
	-3.548117578285730e-16
	1.098776407155354e-18
	-7.235519043834495e-16
	2.496000495905172e-08
	1.271326042447758e-06
	7.931558776203196e-08

 77	7.700000000000005e-01
	-3.473191467796225e-16
	1.145302331626205e-18
	-7.547618167449508e-16
	2.889609465863789e-08
	1.492240103401121e-06
	9.310376462994758e-08

 78	7.800000000000005e-01
	-3.398552600638128e-16
	1.191901643195293e-18
	-7.861674162805206e-16
	3.340736836951914e-08
	1.751578387184553e-06
	1.092883813030831e-07

 79	7.900000000000005e-01
	-3.324365791016925e-16
	1.238415346703467e-18
	-8.176804941995263e-16
	3.856762643115047e-08
	2.055443820427177e-06
	1.282836648317216e-07

 80	8.000000000000005e-01
	-3.250794262868799e-16
	1.284682767399735e-18
	-8.492122202093913e-16
	4.445695381095420e-08
	2.410545673886829e-06
	1.505679556052223e-07

 81	8.100000000000005e-01
	-3.177997647378976e-16
	1.330543299807885e-18
	-8.806741887194068e-16
	5.116129699606053e-08
	2.824108819611213e-06
	1.766893638812812e-07

 82	8.200000000000005e-01
	-3.106130067287835e-16
	1.375838133271424e-18
	-9.119794472184835e-16
	5.877174107543478e-08
	3.303722331901172e-06
	2.072702223711722e-07

 83	8.300000000000005e-01
	-3.035338354569135e-16
	1.420411911281708e-18
	-9.430434814892477e-16
	6.738346278753629e-08
	3.857121820556644e-06
	2.430096957211793e-07

 84	8.400000000000005e-01
	-2.965760442495603e-16
	1.464114284854711e-18
	-9.737851343629320e-16
	7.709436066126478e-08
	4.491906634404643e-06
	2.846838832290253e-07

 85	8.500000000000005e-01
	-2.897523965985424e-16
	1.506801324950928e-18
	-1.004127437676576e-15
	8.800339644975702e-08
	5.215202075506237e-06
	3.331428059973180e-07

 86	8.600000000000005e-01
	-2.830745095890010e-16
	1.548336764915544e-18
	-1.033998340770977e-15
	1.002087193466950e-07
	6.033286904014465e-06
	3.893038215534555e-07

 87	8.700000000000006e-01
	-2.765527624027303e-16
	1.588593050776944e-18
	-1.063331323036095e-15
	1.138056803094980e-07
	6.951215858578824e-06
	4.541412604802555e-07

 88	8.800000000000006e-01
	-2.701962306778297e-16
	1.627452184575165e-18
	-1.092065882425931e-15
	1.288848712154622e-07
	7.972473435821777e-06
	5.286724128230362e-07

 89	8.900000000000006e-01
	-2.640126466411473e-16
	1.664806353294797e-18
	-1.120147896286602e-15
	1.455303358720501e-07
	9.098696711186490e-06
	6.139403670001449e-07

 90	9.000000000000006e-01
	-2.580083841382343e-16
	1.700558343076872e-18
	-1.147529855049936e-15
	1.638180926703476e-07
	1.032950034951533e-05
	7.109945638981657e-07

 91	9.100000000000006e-01
	-2.521884669990397e-16
	1.734621744864883e-18
	-1.174170973155665e-15
	1.838150813545640e-07
	1.166242634403453e-05
	8.208702117508577e-07

 92	9.200000000000006e-01
	-2.465565986185147e-16
	1.766920963254164e-18
	-1.200037184836287e-15
	2.055786028745365e-07
	1.309302614938617e-05
	9.445678609063634e-07

 93	9.300000000000006e-01
	-2.411152102117456e-16
	1.797391044894347e-18
	-1.225101035036783e-15
	2.291562691505995e-07
	1.461506658050834e-05
	1.083034432604317e-06

 94	9.400000000000006e-01
	-2.358655249258388e-16
	1.825977346253489e-18
	-1.249341477700370e-15
	2.545864280726381e-07
	1.622083632245122e-05
	1.237146834238765e-06

 95	9.500000000000006e-01
	-2.308076348498892e-16
	1.852635062876203e-18
	-1.272743594929886e-15
	2.818989867126003e-07
	1.790151977802625e-05
	1.407699006945374e-06

 96	9.600000000000006e-01
	-2.259405879476261e-16
	1.877328643507093e-18
	-1.295298251167715e-15
	3.111165283243851e-07
	1.964760069898089e-05
	1.595392892130456e-06

 97	9.700000000000006e-01
	-2.212624820277456e-16
	1.900031112705166e-18
	-1.317001696590087e-15
	3.422556082490014e-07
	2.144925959325011e-05
	1.800833431245627e-06

 98	9.800000000000006e-01
	-2.167705630443880e-16
	1.920723324980950e-18
	-1.337855133468846e-15
	3.753281187888032e-07
	2.329673506120138e-05
	2.024527380723999e-06

 99	9.900000000000007e-01
	-2.124613252637263e-16
	1.939393172202419e-18
	-1.357864258411604e-15
	4.103426294567068e-07
	2.518062809465865e-05
	2.266885468516557e-06

 100	1.000000000000001e+00
	-2.083306111212475e-16
	1.956034764203188e-18
	-1.377038792248953e-15
	4.473056317330852e-07
	2.709213799163753e-05
	2.528227257243922e-06

 101	1.010000000000001e+00
	-2.043737089088738e-16
	1.970647600347336e-18
	-1.395392007991633e-15
	4.862226418550838e-07
	2.902322728312898e-05
	2.808788010482795e-06

 102	1.020000000000001e+00
	-2.005854467545748e-16
	1.983235747408460e-18
	-1.412940265819491e-15
	5.270991376224506e-07
	3.096671992241742e-05
	3.108726868773767e-06

 103	1.030000000000001e+00
	-1.969602816754466e-16
	1.993807036636912e-18
	-1.429702562564598e-15
	5.699413235607372e-07
	3.291634155575392e-05
	3.428135709217561e-06

 104	1.040000000000001e+00
	-1.934923827872508e-16
	2.002372290427145e-18
	-1.445700101676759e-15
	6.147567321874059e-07
	3.486671306777283e-05
	3.767048164287913e-06

 105	1.050000000000001e+00
	-1.901757080309924e-16
	2.008944586643518e-18
	-1.460955888260374e-15
	6.615546777160825e-07
	3.681330916959559e-05
	4.125448391591725e-06

 106	1.060000000000001e+00
	-1.870040740248180e-16
	2.013538566481213e-18
	-1.475494352483555e-15
	7.103465830368447e-07
	3.875239308958101e-05
	4.503279301295108e-06

 107	1.070000000000001e+00
	-1.839712188644019e-16
	2.016169789772328e-18
	-1.489341003507446e-15
	7.611462022030619e-07
	4.068093694537216e-05
	4.900450051580971e-06

 108	1.080000000000001e+00
	-1.810708578760556e-16
	2.016854139920818e-18
	-1.502522115078918e-15
	8.139697599178190e-07
	4.259653554518393e-05
	5.316842709278906e-06

 109	1.090000000000001e+00
	-1.782967324746939e-16
	2.015607279173395e-18
	-1.515064443077617e-15
	8.688360274919237e-07
	4.449731949519594e-05
	5.752318040870102e-06

 110	1.100000000000001e+00
	-1.756426523953183e-16
	2.012444153704559e-18
	-1.526994974605717e-15
	9.257663520930211e-07
	4.638187177468732e-05
	6.206720449073577e-06

 111	1.110000000000001e+00
	-1.731025316545765e-16
	2.007378547000744e-18
	-1.538340707647761e-15
	9.847846532811766e-07
	4.824915048423167e-05
	6.679882104315645e-06

 112	1.120000000000001e+00
	-1.706704186612003e-16
	2.000422679253582e-18
	-1.549128459897269e-15
	1.045917398121649e-06
	5.009841930983828e-05
	7.171626341380028e-06

 113	1.130000000000001e+00
	-1.683405209343838e-16
	1.991586849893207e-18
	-1.559384705031790e-15
	1.109193563741902e-06
	5.192918636838646e-05
	7.681770402347544e-06

 114	1.140000000000001e+00
	-1.661072249105960e-16
	1.980879119984960e-18
	-1.569135434504685e-15
	1.174644594128894e-06
	5.374115147364814e-05
	8.210127610264782e-06

 115	1.150000000000001e+00
	-1.639651113254499e-16
	1.968305030952578e-18
	-1.578406042794421e-15
	1.242304356255847e-06
	5.553416144377812e-05
	8.756509056129725e-06

 116	1.160000000000001e+00
	-1.619089661144659e-16
	1.953867363939808e-18
	-1.587221236751081e-15
	1.312209117515494e-06
	5.730817339907146e-05
	9.320725063415695e-06

 117	1.170000000000001e+00
	-1.599337905433807e-16
	1.937565888229309e-18
	-1.595604950239317e-15
	1.384397437765300e-06
	5.906322176582950e-05
	9.902585383224925e-06

 118	1.180000000000001e+00
	-1.580348028278380e-16
	1.919397214615305e-18
	-1.603580304132884e-15
	1.458910250755289e-06
	6.079939698179073e-05
	1.050190096579286e-05

 119	1.190000000000001e+00
	-1.562074426588437e-16
	1.899354590832500e-18
	-1.611169552962593e-15
	1.535790772900338e-06
	6.251682330518804e-05
	1.111848366417465e-05

 120	1.200000000000001e+00
	-1.544473706947593e-16
	1.877427755070671e-18
	-1.618394059298665e-15
	1.615084512175605e-06
	6.421564383531276e-05
	1.175214668015946e-05

 121	1.210000000000001e+00
	-1.527504667293096e-16
	1.853602796549872e-18
	-1.625274276754816e-15
	1.696839269038643e-06
	6.589600848995300e-05
	1.240270468985643e-05

 122	1.220000000000001e+00
	-1.511128262888276e-16
	1.827862028067722e-18
	-1.631829742915433e-15
	1.781105147729452e-06
	6.755806491660140e-05
	1.306997386420895e-05

 123	1.230000000000001e+00
	-1.495307559440686e-16
	1.800183867670698e-18
	-1.638079080702964e-15
	1.867934578105937e-06
	6.920195179826038e-05
	1.375377181101564e-05

 124	1.240000000000001e+00
	-1.480007675902852e-16
	1.770542726807974e-18
	-1.644040006841585e-15
	1.957382348099664e-06
	7.082779409104828e-05
	1.445391746002704e-05

 125	1.250000000000001e+00
	-1.465195719192165e-16
	1.738908902529029e-18
	-1.649729346209417e-15
	2.049505646848024e-06
	7.243569980165004e-05
	1.517023090841841e-05

 126	1.260000000000001e+00
	-1.450840712784458e-16
	1.705248471480662e-18
	-1.655163051002697e-15
	2.144364118563143e-06
	7.402575797647706e-05
	1.590253324034803e-05

 127	1.270000000000001e+00
	-1.436913520875367e-16
	1.669523183641260e-18
	-1.660356223759376e-15
	2.242019927225583e-06
	7.559803763063472e-05
	1.665064633131213e-05

 128	1.280000000000001e+00
	-1.423386769564485e-16
	1.631690353899306e-18
	-1.665323143405789e-15
	2.342537832238071e-06
	7.715258739353490e-05
	1.741439264554294e-05

 129	1.290000000000001e+00
	-1.410234766301125e-16
	1.591702749735935e-18
	-1.670077293597341e-15
	2.445985275234905e-06
	7.868943568961761e-05
	1.819359503267418e-05

 130	1.300000000000001e+00
	-1.397433418635764e-16
	1.549508473408902e-18
	-1.674631392722503e-15
	2.552432478315526e-06
	8.020859130782268e-05
	1.898807652826852e-05

 131	1.310000000000001e+00
	-1.384960153147777e-16
	1.505050837155649e-18
	-1.678997425028658e-15
	2.661952554052021e-06
	8.171004424284925e-05
	1.979766016148510e-05

 132	1.320000000000001e+00
	-1.372793835266518e-16
	1.458268230037684e-18
	-1.683186672408739e-15
	2.774621627711036e-06
	8.319376671562262e-05
	2.062216877212434e-05

 133	1.330000000000001e+00
	-1.360914690568008e-16
	1.409093975136712e-18
	-1.687209746459496e-15
	2.890518972228975e-06
	8.465971430042524e-05
	2.146142483846527e-05

 134	1.340000000000001e+00
	-1.349304228011675e-16
	1.357456175886232e-18
	-1.691076620486106e-15
	3.009727156585364e-06
	8.610782710249518e-05
	2.231525031666561e-05

 135	1.350000000000001e+00
	-1.337945165479750e-16
	1.303277550379809e-18
	-1.694796661184187e-15
	3.132332208335184e-06
	8.753803094314414e-05
	2.318346649200851e-05

 136	1.360000000000001e+00
	-1.326821357894125e-16
	1.246475252542565e-18
	-1.698378659779756e-15
	3.258423791184452e-06
	8.895023852007776e-05
	2.406589384189768e-05

 137	1.370000000000001e+00
	-1.315917728110598e-16
	1.186960679082794e-18
	-1.701830862450747e-15
	3.388095398628739e-06
	9.034435051909005e-05
	2.496235191023016e-05

 138	1.380000000000001e+00
	-1.305220200726809e-16
	1.124639261160094e-18
	-1.705160999891114e-15
	3.521444564820313e-06
	9.172025666000127e-05
	2.587265919256910e-05

 139	1.390000000000001e+00
	-1.294715638886816e-16
	1.059410239713830e-18
	-1.708376315910704e-15
	3.658573093988674e-06
	9.307783666494463e-05
	2.679663303139446e-05

 140	1.400000000000001e+00
	-1.284391784120588e-16
	9.911664233922478e-19
	-1.711483594991661e-15
	3.799587309913570e-06
	9.441696114116093e-05
	2.773408952061483e-05

 141	1.410000000000001e+00
	-1.274237199220005e-16
	9.197939280099063e-19
	-1.714489188745566e-15
	3.944598327139333e-06
	9.573749237353004e-05
	2.868484341845772e-05

 142	1.420000000000001e+00
	-1.264241214122865e-16
	8.451718964379183e-19
	-1.717399041235292e-15
	4.093722345828291e-06
	9.703928502437050e-05
	2.964870806782322e-05

 143	1.430000000000001e+00
	-1.254393874752272e-16
	7.671721978011518e-19
	-1.720218713142157e-15
	4.247080972379202e-06
	9.832218673969536e-05
	3.062549532316656e-05

 144	1.440000000000001e+00
	-1.244685894739588e-16
	6.856591048162493e-19
	-1.722953404772738e-15
	4.404801568188369e-06
	9.958603866227956e-05
	3.161501548297734e-05

 145	1.450000000000001e+00
	-1.235108609944323e-16
	6.004889480580729e-19
	-1.725607977911001e-15
	4.567017629205902e-06
	1.008306758526444e-04
	3.261707722692644e-05

 146	1.460000000000001e+00
	-1.225653935673173e-16
	5.115097458877788e-19
	-1.728186976530687e-15
	4.733869199242059e-06
	1.020559276195072e-04
	3.363148755676927e-05

 147	1.470000000000001e+00
	-1.216314326492333e-16
	4.185608087146020e-19
	-1.730694646390149e-15
	4.905503320308393e-06
	1.032616177614267e-04
	3.465805174010707e-05

 148	1.480000000000001e+00
	-1.207082738521698e-16
	3.214723161963843e-19
	-1.733134953537775e-15
	5.082074523638850e-06
	1.044475647213623e-04
	3.569657325612691e-05

 149	1.490000000000001e+00
	-1.197952594096180e-16
	2.200648659103863e-19
	-1.735511601760498e-15
	5.263745365427347e-06
	1.056135816557056e-04
	3.674685374245994e-05

 150	1.500000000000001e+00
	-1.188917748678119e-16
	1.141489919469002e-19
	-1.737828049011215e-15
	5.450687011740125e-06
	1.067594764190517e-04
	3.780869294230505e-05

 151	1.510000000000001e+00
	-1.179972459904171e-16
	3.524651793765163e-21
	-1.740087522853351e-15
	5.643079877515499e-06
	1.078850514656189e-04
	3.888188865098443e-05

 152	1.520000000000001e+00
	-1.171111358651738e-16
	-1.120193202097104e-19
	-1.742293034962280e-15
	5.841114325044055e-06
	1.089901036677857e-04
	3.996623666109748e-05

 153	1.530000000000001e+00
	-1.162329422011641e-16
	-2.327057946643898e-19
	-1.744447394724195e-15
	6.044991427828238e-06
	1.100744240517525e-04
	4.106153070544516e-05

 154	1.540000000000001e+00
	-1.153621948056684e-16
	-3.587699660632786e-19
	-1.746553221973359e-15
	6.254923806242386e-06
	1.111377974498423e-04
	4.216756239689615e-05

 155	1.550000000000001e+00
	-1.144984532299199e-16
	-4.904600109191658e-19
	-1.748612958908448e-15
	6.471136541940267e-06
	1.121800020684723e-04
	4.328412116435311e-05

 156	1.560000000000001e+00
	-1.136413045734341e-16
	-6.280377871903564e-19
	-1.750628881228232e-15
	6.693868178473972e-06
	1.132008089703705e-04
	4.441099418397254e-05

 157	1.570000000000001e+00
	-1.127903614369986e-16
	-7.717795772346364e-19
	-1.752603108525964e-15
	6.923371816067533e-06
	1.141999814692038e-04
	4.554796630476904e-05

 158	1.580000000000001e+00
	-1.119452600148529e-16
	-9.219768766329942e-19
	-1.754537613980815e-15
	7.159916308903471e-06
	1.151772744344633e-04
	4.669481996771986e-05

 159	1.590000000000001e+00
	-1.111056583170230e-16
	-1.078937231335615e-18
	-1.756434233383419e-15
	7.403787573582695e-06
	1.161324335042497e-04
	4.785133511745931e-05

 160	1.600000000000001e+00
	-1.102712345132149e-16
	-1.242985125697105e-18
	-1.758294673531232e-15
	7.655290017552964e-06
	1.170651942035726e-04
	4.901728910562957e-05

 161	1.610000000000001e+00
	-1.094416853901427e-16
	-1.414462924077748e-18
	-1.760120520027921e-15
	7.914748096191681e-06
	1.179752809659794e-04
	5.019245658493380e-05

 162	1.620000000000001e+00
	-1.086167249145853e-16
	-1.593731868799752e-18
	-1.761913244519430e-15
	8.182508006775552e-06
	1.188624060568364e-04
	5.137660939291350e-05

 163	1.630000000000001e+00
	-1.077960828949201e-16
	-1.781173137353305e-18
	-1.763674211397819e-15
	8.458939526650664e-06
	1.197262683974947e-04
	5.256951642446464e-05

 164	1.640000000000001e+00
	-1.069795037343067e-16
	-1.977188961849101e-18
	-1.765404684002334e-15
	8.744438001370067e-06
	1.205665522910002e-04
	5.377094349209955e-05

 165	1.650000000000001e+00
	-1.061667452690955e-16
	-2.182203813809020e-18
	-1.767105830345572e-15
	9.039426486201917e-06
	1.213829260520990e-04
	5.498065317298595e-05

 166	1.660000000000001e+00
	-1.053575776864517e-16
	-2.396665657471938e-18
	-1.768778728391036e-15
	9.344358040985207e-06
	1.221750405472011e-04
	5.619840464182837e-05

 167	1.670000000000001e+00
	-1.045517825155569e-16
	-2.621047274863573e-18
	-1.770424370906776e-15
	9.659718173540738e-06
	1.229425276539188e-04
	5.742395348873734e-05

 168	1.680000000000001e+00
	-1.037491516871373e-16
	-2.855847665938332e-18
	-1.772043669918331e-15
	9.986027420393081e-06
	1.236849986550024e-04
	5.865705152135054e-05

 169	1.690000000000001e+00
	-1.029494866564049e-16
	-3.101593527136813e-18
	-1.773637460782670e-15
	1.032384404504099e-05
	1.244020425882214e-04
	5.989744655065169e-05

 170	1.700000000000001e+00
	-1.021525975848491e-16
	-3.358840811720376e-18
	-1.775206505903476e-15
	1.067376682300392e-05
	1.250932245822627e-04
	6.114488216019028e-05

 171	1.710000000000001e+00
	-1.013583025766387e-16
	-3.628176375227094e-18
	-1.776751498106662e-15
	1.103643786891874e-05
	1.257580842192927e-04
	6.239909745875307e-05

 172	1.720000000000001e+00
	-1.005664269657047e-16
	-3.910219709348365e-18
	-1.778273063693811e-15
	1.141254544362431e-05
	1.263961339777589e-04
	6.365982681701231e-05

 173	1.730000000000001e+00
	-9.977680264987253e-17
	-4.205624767435962e-18
	-1.779771765189909e-15
	1.180282665805770e-05
	1.270068578244232e-04
	6.492679958928349e-05

 174	1.740000000000001e+00
	-9.898926746868872e-17
	-4.515081884713683e-18
	-1.781248103800658e-15
	1.220806996563622e-05
	1.275897100426511e-04
	6.619973982230439e-05

 175	1.750000000000001e+00
	-9.820366462187218e-17
	-4.839319796077292e-18
	-1.782702521593521e-15
	1.262911730557393e-05
	1.281441144044751e-04
	6.747836595391593e-05

 176	1.760000000000001e+00