Title: **.subckt gm_id_pmos
Date: Wed Jun  2 14:57:33  2021
Plotname: DC transfer characteristic
Flags: real
No. Variables: 7
No. Points: 181
Variables:
	0	v(v-sweep)	voltage
	1	@m.xm1.msky130_fd_pr__pfet_01v8[cgb]	capacitance
	2	@m.xm1.msky130_fd_pr__pfet_01v8[cgd]	capacitance
	3	@m.xm1.msky130_fd_pr__pfet_01v8[cgs]	capacitance
	4	@m.xm1.msky130_fd_pr__pfet_01v8[gds]	admittance
	5	@m.xm1.msky130_fd_pr__pfet_01v8[gm]	admittance
	6	i(@m.xm1.msky130_fd_pr__pfet_01v8[id])	current
Values:
 0	0.000000000000000e+00
	-6.087308210384991e-16
	8.690298633560459e-20
	-6.970389559765051e-18
	6.823708262274466e-14
	2.286711218240453e-12
	8.040190281642675e-14

 1	1.000000000000000e-02
	-6.057251230296432e-16
	9.347085701180570e-20
	-7.419911273987235e-18
	9.061875207723422e-14
	3.035875412231005e-12
	1.068389949454307e-13

 2	2.000000000000000e-02
	-6.027521004534046e-16
	1.005387162898637e-19
	-7.903435340682562e-18
	1.202974984531943e-13
	4.028826504157840e-12
	1.419299479764617e-13

 3	3.000000000000000e-02
	-5.998102697029481e-16
	1.081458146360477e-19
	-8.423582358651797e-18
	1.596292372146054e-13
	5.344029117017525e-12
	1.884869636744690e-13

 4	4.000000000000000e-02
	-5.968981319076160e-16
	1.163344603517769e-19
	-8.983173695476715e-18
	2.117184454527352e-13
	7.084751061414404e-12
	2.502253559499168e-13

 5	5.000000000000000e-02
	-5.940141695108843e-16
	1.251502228583784e-19
	-9.585244448765390e-18
	2.806497799408164e-13
	9.386671056364837e-12
	3.320479892463860e-13

 6	6.000000000000000e-02
	-5.911568428258568e-16
	1.346421447157822e-19
	-1.023305692434730e-17
	3.717881852815581e-13
	1.242770129336340e-11
	4.404164289179671e-13

 7	7.000000000000001e-02
	-5.883245865671367e-16
	1.448629625967701e-19
	-1.093011464286042e-17
	4.921661474297333e-13
	1.644060998414797e-11
	5.838337796753873e-13

 8	8.000000000000000e-02
	-5.855158063578914e-16
	1.558693374428588e-19
	-1.168017688647102e-17
	6.509810369333279e-13
	2.172915392176331e-11
	7.734706523052021e-13

 9	9.000000000000000e-02
	-5.827288752112356e-16
	1.677220940112351e-19
	-1.248727379630005e-17
	8.602303697067740e-13
	2.868856772537013e-11
	1.023973475001785e-12

 10	9.999999999999999e-02
	-5.799621299858668e-16
	1.804864699782249e-19
	-1.335572202812408e-17
	1.135518168194737e-12
	3.783139765128904e-11
	1.354503538724655e-12

 11	1.100000000000000e-01
	-5.772138678172349e-16
	1.942323746873015e-19
	-1.429014096866041e-17
	1.497071174846642e-12
	4.981980110749816e-11
	1.790065724808023e-12

 12	1.200000000000000e-01
	-5.744823425275050e-16
	2.090346575126097e-19
	-1.529546950686037e-17
	1.971009006717856e-12
	6.550553863682867e-11
	2.363197635945720e-12

 13	1.300000000000000e-01
	-5.717657610202666e-16
	2.249733856466653e-19
	-1.637698334372750e-17
	2.590916755807888e-12
	8.597893470867202e-11
	3.116102428248985e-12

 14	1.400000000000000e-01
	-5.690622797073461e-16
	2.421341306575306e-19
	-1.754025179703997e-17
	3.399771045345081e-12
	1.126280269215652e-10
	4.103321263634391e-12

 15	1.500000000000000e-01
	-5.663700015493465e-16
	2.606082589516043e-19
	-1.879117508730476e-17
	4.452269631580005e-12
	1.472089504543188e-10
	5.395052499238865e-12

 16	1.600000000000000e-01
	-5.636869713438295e-16
	2.804932410651044e-19
	-2.013631249439321e-17
	5.817610370923680e-12
	1.919283401695571e-10
	7.081234784471466e-12

 17	1.700000000000000e-01
	-5.610111723799388e-16
	3.018929597272571e-19
	-2.158246911146750e-17
	7.582752259520340e-12
	2.495375311316626e-10
	9.276513195723889e-12

 18	1.800000000000000e-01
	-5.583405232719852e-16
	3.249180207167391e-19
	-2.313687966671621e-17
	9.856172796637898e-12
	3.234379636907076e-10
	1.212620466986446e-11

 19	1.900000000000000e-01
	-5.556728746371686e-16
	3.496860671454865e-19
	-2.480722765644611e-17
	1.277210867258543e-11
	4.177956668231643e-10
	1.581336507324317e-11

 20	2.000000000000000e-01
	-5.530060059416627e-16
	3.763220925105021e-19
	-2.660166428753315e-17
	1.649523193982362e-11
	5.376614914073903e-10
	2.056703322563794e-11

 21	2.100000000000000e-01
	-5.503376225713800e-16
	4.049587488753557e-19
	-2.852882698767370e-17
	2.122567540341317e-11
	6.890923922403598e-10
	2.667168693402158e-11

 22	2.200000000000001e-01
	-5.476653531936322e-16
	4.357366457995904e-19
	-3.059785719425283e-17
	2.720428485099211e-11
	8.792679916070341e-10
	3.447789335690775e-11

 23	2.300000000000001e-01
	-5.449867474864645e-16
	4.688046348146733e-19
	-3.281841708043042e-17
	3.471795155289097e-11
	1.116596283238507e-09
	4.441407570876405e-11

 24	2.400000000000001e-01
	-5.422992743234787e-16
	5.043200733627585e-19
	-3.520070482120875e-17
	4.410487829437824e-11
	1.410803126344821e-09
	5.699925969047407e-11

 25	2.500000000000001e-01
	-5.396003205141602e-16
	5.424490611208433e-19
	-3.775546793944411e-17
	5.575966865114684e-11
	1.773002570692143e-09
	7.285661999867091e-11

 26	2.600000000000001e-01
	-5.368871902111239e-16
	5.833666406443646e-19
	-4.049401421018513e-17
	7.013821199018573e-11
	2.215749290590630e-09
	9.272763731925412e-11

 27	2.700000000000001e-01
	-5.341571051088984e-16
	6.272569531228016e-19
	-4.342821953032249e-17
	8.776246815679179e-11
	2.753080364019784e-09
	1.174867175097591e-10

 28	2.800000000000001e-01
	-5.314072055709702e-16
	6.743133389138170e-19
	-4.657053209111741e-17
	1.092254272843484e-10
	3.400560690219758e-09
	1.481562318171827e-10

 29	2.900000000000001e-01
	-5.286345528343939e-16
	7.247383713217596e-19
	-4.993397211740422e-17
	1.351967100902159e-10
	4.175353359924069e-09
	1.859221156266107e-10

 30	3.000000000000001e-01
	-5.258361324531760e-16
	7.787438108731753e-19
	-5.353212636344472e-17
	1.664294505729455e-10
	5.096341813234292e-09
	2.321504058648667e-10

 31	3.100000000000001e-01
	-5.230088591527633e-16
	8.365504661301510e-19
	-5.737913648243413e-17
	2.037692312313848e-10
	6.184333221988111e-09
	2.884053814656776e-10

 32	3.200000000000001e-01
	-5.201495832777206e-16
	8.983879459055764e-19
	-6.148968031671266e-17
	2.481658931355245e-10
	7.462371320880151e-09
	3.564702629361091e-10

 33	3.300000000000001e-01
	-5.172550990224999e-16
	9.644942866437071e-19
	-6.587894509152462e-17
	3.006890093355540e-10
	8.956181919971130e-09
	4.383716871936379e-10

 34	3.400000000000001e-01
	-5.143221546404161e-16
	1.035115437755346e-18
	-7.056259143990686e-17
	3.625477034881982e-10
	1.069476667286941e-08
	5.364093693781470e-10

 35	3.500000000000001e-01
	-5.113474648276632e-16
	1.110504586910639e-18
	-7.555670714392790e-17
	4.351153510258751e-10
	1.271115231675922e-08
	6.531924769254090e-10

 36	3.600000000000002e-01
	-5.083277254765524e-16
	1.190921306766538e-18
	-8.087774945262998e-17
	5.199595646933797e-10
	1.504329582359044e-08
	7.916842772388016e-10

 37	3.700000000000002e-01
	-5.052596309840542e-16
	1.276630504424228e-18
	-8.654247483496070e-17
	6.188777855819969e-10
	1.773514264302056e-08
	9.552566048612745e-10

 38	3.800000000000002e-01
	-5.021398942870384e-16
	1.367901155168478e-18
	-9.256785505260907e-17
	7.339388071746373e-10
	2.083783655305629e-08
	1.147755668530781e-09

 39	3.900000000000002e-01
	-4.989652697731421e-16
	1.465004802841536e-18
	-9.897097849956302e-17
	8.675306656940624e-10
	2.441108559395298e-08
	1.373580729852514e-09

 40	4.000000000000002e-01
	-4.957325791846911e-16
	1.568213810659785e-18
	-1.057689358592441e-16
	1.022415528470401e-09
	2.852469830943882e-08
	1.637777276161768e-09

 41	4.100000000000002e-01
	-4.924387405914033e-16
	1.677799348508927e-18
	-1.129786892833416e-16
	1.201792484093357e-09
	3.326031678415214e-08
	1.946146512172934e-09

 42	4.200000000000002e-01
	-4.890808004545652e-16
	1.794029105868334e-18
	-1.206169245060081e-16
	1.409369461620696e-09
	3.871338651973520e-08
	2.305373327011881e-09

 43	4.300000000000002e-01
	-4.856559687401465e-16
	1.917164723625594e-18
	-1.286998855791940e-16
	1.649445863746064e-09
	4.499541721990543e-08
	2.723175363588576e-09

 44	4.400000000000002e-01
	-4.821616569602768e-16
	2.047458943241612e-18
	-1.372431922550397e-16
	1.927007882768328e-09
	5.223660282721587e-08
	3.208476429064470e-09

 45	4.500000000000002e-01
	-4.785955189315250e-16
	2.185152478082318e-18
	-1.462616404529433e-16
	2.247838881242027e-09
	6.058888401190774e-08
	3.771608242122980e-09

 46	4.600000000000002e-01
	-4.749554939348848e-16
	2.330470619277969e-18
	-1.557689867335763e-16
	2.618647673160902e-09
	7.022955253612313e-08
	4.424545424327541e-09

 47	4.700000000000003e-01
	-4.712398518474327e-16
	2.483619597185614e-18
	-1.657777182575791e-16
	3.047218054481545e-09
	8.136551555330399e-08
	5.181179727769991e-09

 48	4.800000000000003e-01
	-4.674472396912527e-16
	2.644782729337416e-18
	-1.762988103272180e-16
	3.542583525074738e-09
	9.423836011842899e-08
	6.057640779416530e-09

 49	4.900000000000003e-01
	-4.635767289143793e-16
	2.814116396500817e-18
	-1.873414742840863e-16
	4.115231839884161e-09
	1.091303851499385e-07
	7.072672155702973e-09

 50	5.000000000000002e-01
	-4.596278625852195e-16
	2.991745899917364e-18
	-1.989128992489938e-16
	4.777344845924986e-09
	1.263718008941386e-07
	8.248073432093591e-09

 51	5.100000000000002e-01
	-4.556007015512630e-16
	3.177761264589893e-18
	-2.110179919195453e-16
	5.543080020996408e-09
	1.463493355422625e-07
	9.609221044822037e-09

 52	5.200000000000002e-01
	-4.514958684911006e-16
	3.372213065221339e-18
	-2.236591193586336e-16
	6.428901240427511e-09
	1.695165357241762e-07
	1.118568342748034e-08

 53	5.300000000000002e-01
	-4.473145886828801e-16
	3.575108362545499e-18
	-2.368358603794615e-16
	7.453967559714668e-09
	1.964061023902459e-07
	1.301194901992835e-08

 54	5.400000000000003e-01
	-4.430587262302065e-16
	3.786406847721009e-18
	-2.505447717212456e-16
	8.640590195450925e-09
	2.276446655790059e-07
	1.512828946652337e-08

 55	5.500000000000003e-01
	-4.387308144361936e-16
	4.006017300511100e-18
	-2.647791756722144e-16
	1.001476936774200e-08
	2.639704690005622e-07
	1.758178468942749e-08

 56	5.600000000000003e-01
	-4.343340790060088e-16
	4.233794472436930e-18
	-2.795289760891921e-16
	1.160682414352553e-08
	3.062545045443639e-07
	2.042754157868126e-08

 57	5.700000000000003e-01
	-4.298724527950519e-16
	4.469536508276298e-18
	-2.947805098434188e-16
	1.345212973577621e-08
	3.555257011095004e-07
	2.373014377107140e-08

 58	5.800000000000003e-01
	-4.253505809098722e-16
	4.712983017542885e-18
	-3.105164405519366e-16
	1.559197761947718e-08
	4.130008206831222e-07
	2.756537629545237e-08

 59	5.900000000000003e-01
	-4.207738151160038e-16
	4.963813901400003e-18
	-3.267157010022602e-16
	1.807457394578910e-08
	4.801197306473128e-07
	3.202227550753422e-08

 60	6.000000000000003e-01
	-4.161481967123085e-16
	5.221649029485695e-18
	-3.433534899258981e-16
	2.095619053120104e-08
	5.585866805361696e-07
	3.720556128287359e-08

 61	6.100000000000003e-01
	-4.114804272931620e-16
	5.486048845230773e-18
	-3.604013277192305e-16
	2.430247942928340e-08
	6.504180802149453e-07
	4.323851415479892e-08

 62	6.200000000000003e-01
	-4.067778271322725e-16
	5.756515957586608e-18
	-3.778271743609929e-16
	2.818995579842877e-08
	7.579970106113173e-07
	5.026636385758892e-08

 63	6.300000000000003e-01
	-4.020482812756535e-16
	6.032497752103314e-18
	-3.955956111664747e-16
	3.270764328917295e-08
	8.841342436277849e-07
	5.846025595568661e-08

 64	6.400000000000003e-01
	-3.973001738132123e-16
	6.313390025779996e-18
	-4.136680862009742e-16
	3.795886018154695e-08
	1.032134844021035e-06
	6.802185771999317e-08

 65	6.500000000000004e-01
	-3.925423111924022e-16
	6.598541619117171e-18
	-4.320032212189994e-16
	4.406310173360911e-08
	1.205868413606759e-06
	7.918865035657417e-08

 66	6.600000000000004e-01
	-3.877838358248485e-16
	6.887259986662685e-18
	-4.505571759862898e-16
	5.115794373215863e-08
	1.409839674074224e-06
	9.223992877851837e-08

 67	6.700000000000004e-01
	-3.830341315981287e-16
	7.178817615562929e-18
	-4.692840638745691e-16
	5.940085397616008e-08
	1.649254365069143e-06
	1.075034887576907e-07

 68	6.800000000000004e-01
	-3.783027232203502e-16
	7.472459171811949e-18
	-4.881364107942133e-16
	6.897075377889347e-08
	1.930073425457435e-06
	1.253629212030491e-07

 69	6.900000000000004e-01
	-3.735991715768264e-16
	7.767409227611355e-18
	-5.070656479455588e-16
	8.006912421328336e-08
	2.259046300626777e-06
	1.462653523553253e-07

 70	7.000000000000004e-01
	-3.689329674509949e-16
	8.062880401955791e-18
	-5.260226276131873e-16
	9.292040836592081e-08
	2.643712288881194e-06
	1.707293671333453e-07

 71	7.100000000000004e-01
	-3.643134260449340e-16
	8.358081731439666e-18
	-5.449581503707372e-16
	1.077714311883695e-07
	3.092357569508511e-06
	1.993527348639609e-07

 72	7.200000000000004e-01
	-3.597495847227892e-16
	8.652227080194199e-18
	-5.638234916556310e-16
	1.248895552738850e-07
	3.613915535292201e-06
	2.328194316445899e-07

 73	7.300000000000004e-01
	-3.552501062931087e-16
	8.944543397251627e-18
	-5.825709157362975e-16
	1.445593276811735e-07
	4.217799916832969e-06
	2.719053373189638e-07

 74	7.400000000000004e-01
	-3.508231899492337e-16
	9.234278636493565e-18
	-6.011541656237424e-16
	1.670774611828568e-07
	4.913664456007180e-06
	3.174818991184071e-07

 75	7.500000000000004e-01
	-3.464764917114351e-16
	9.520709168226502e-18
	-6.195289184416310e-16
	1.927461377610514e-07
	5.711089757142518e-06
	3.705170238333106e-07

 76	7.600000000000005e-01
	-3.422170558757938e-16
	9.803146531491157e-18
	-6.376531971069231e-16
	2.218648161721972e-07
	6.619207067261082e-06
	4.320725107313388e-07

 77	7.700000000000005e-01
	-3.380512585913989e-16
	1.008094340127312e-17
	-6.554877308088346e-16
	2.547209477970386e-07
	7.646279070330217e-06
	5.032974862390920e-07

 78	7.800000000000005e-01
	-3.339847642794695e-16
	1.035349867342706e-17
	-6.729962586165543e-16
	2.915802204754718e-07
	8.799267621040403e-06
	5.854175527211968e-07

 79	7.900000000000005e-01
	-3.300224951960782e-16
	1.062026160081591e-17
	-6.901457724977777e-16
	3.326771145312190e-07
	1.008342559244369e-05
	6.797197022514212e-07

 80	8.000000000000005e-01
	-3.261686140434890e-16
	1.088073494535001e-17
	-7.069066979935483e-16
	3.782066260579278e-07
	1.150195267072468e-05
	7.875334358325387e-07

 81	8.100000000000005e-01
	-3.224265191707583e-16
	1.113447714083159e-17
	-7.232530126797569e-16
	4.283179610283523e-07
	1.305575170290492e-05
	9.102089158764141e-07

 82	8.200000000000005e-01
	-3.187988515858422e-16
	1.138110348948981e-17
	-7.391623042737711e-16
	4.831108256860338e-07
	1.474331299346963e-05
	1.049093304418889e-06

 83	8.300000000000005e-01
	-3.152875127388670e-16
	1.162028643980030e-17
	-7.546157717542215e-16
	5.426346585512327e-07
	1.656074004312399e-05
	1.205506647018743e-06

 84	8.400000000000005e-01
	-3.118936918352663e-16
	1.185175501387262e-17
	-7.695981741091246e-16
	6.068908160301281e-07
	1.850191405848137e-05
	1.380718717063484e-06

 85	8.500000000000005e-01
	-3.086179013001061e-16
	1.207529346890912e-17
	-7.840977322874825e-16
	6.758373977587579e-07
	2.055877909240584e-05
	1.575928129329501e-06

 86	8.600000000000005e-01
	-3.054600189393700e-16
	1.229073928882867e-17
	-7.981059905954689e-16
	7.493961360958474e-07
	2.272171760542472e-05
	1.792244786124020e-06

 87	8.700000000000006e-01
	-3.024193353258611e-16
	1.249798060919729e-17
	-8.116176441589494e-16
	8.274606153106598e-07
	2.497997935582515e-05
	2.030676378068297e-06

 88	8.800000000000006e-01
	-2.994946049696892e-16
	1.269695318142887e-17
	-8.246303391917533e-16
	9.099050433716918e-07
	2.732212536088389e-05
	2.292119280173632e-06

 89	8.900000000000006e-01
	-2.966840999079577e-16
	1.288763698127580e-17
	-8.371444526950490e-16
	9.965928615274196e-07
	2.973645255664264e-05
	2.577353817030165e-06

 90	9.000000000000006e-01
	-2.939856644560250e-16
	1.307005256250655e-17
	-8.491628579056643e-16
	1.087384615215017e-06
	3.221137222035437e-05
	2.887043562176339e-06

 91	9.100000000000006e-01
	-2.913967699945734e-16
	1.324425724999655e-17
	-8.606906813509443e-16
	1.182144687869810e-06
	3.473572438173300e-05
	3.221738112488845e-06

 92	9.200000000000006e-01
	-2.889145688137570e-16
	1.341034125789218e-17
	-8.717350567962448e-16
	1.280746682484084e-06
	3.729901964265599e-05
	3.581878647247887e-06

 93	9.300000000000006e-01
	-2.865359461901549e-16
	1.356842380866538e-17
	-8.823048807273509e-16
	1.383077398084384e-06
	3.989160779181929e-05
	3.967805536974504e-06

 94	9.400000000000006e-01
	-2.842575700271031e-16
	1.371864931832968e-17
	-8.924105733296154e-16
	1.489039474284776e-06
	4.250477863202803e-05
	4.379767292932693e-06

 95	9.500000000000006e-01
	-2.820759375387439e-16
	1.386118370232997e-17
	-9.020638482388037e-16
	1.598552861556398e-06
	4.513080433156160e-05
	4.817930223597025e-06

 96	9.600000000000006e-01
	-2.799874185983686e-16
	1.399621084606290e-17
	-9.112774936706780e-16
	1.711555320353796e-06
	4.776293454044486e-05
	5.282388268650574e-06

 97	9.700000000000006e-01
	-2.779882954993009e-16
	1.412392927395349e-17
	-9.200651669066396e-16
	1.828002165860317e-06
	5.039535586671036e-05
	5.773172596384030e-06

 98	9.800000000000006e-01
	-2.760747989896412e-16
	1.424454904174747e-17
	-9.284412035353759e-16
	1.947865465746310e-06
	5.302312655244883e-05
	6.290260663274750e-06

 99	9.900000000000007e-01
	-2.742431405396877e-16
	1.435828886833847e-17
	-9.364204423346246e-16
	2.071132874625407e-06
	5.564209576741052e-05
	6.833584536203443e-06

 100	1.000000000000001e+00
	-2.724895408825769e-16
	1.446537351612626e-17
	-9.440180662277293e-16
	2.197806258089957e-06
	5.824881521349538e-05
	7.403038363448576e-06

 101	1.010000000000001e+00
	-2.708102549350960e-16
	1.456603142263100e-17
	-9.512494593679697e-16
	2.327900226689699e-06
	6.084044897251864e-05
	7.998484948670747e-06

 102	1.020000000000001e+00
	-2.692015932576248e-16
	1.466049258085818e-17
	-9.581300800883319e-16
	2.461440669538733e-06
	6.341468590333577e-05
	8.619761433130330e-06

 103	1.030000000000001e+00
	-2.676599402510715e-16
	1.474898666166988e-17
	-9.646753492017327e-16
	2.598463350400409e-06
	6.596965749541012e-05
	9.266684127234464e-06

 104	1.040000000000001e+00
	-2.661817693158696e-16
	1.483174136810025e-17
	-9.709005529418528e-16
	2.739012606957009e-06
	6.850386294897086e-05
	9.939052555672626e-06

 105	1.050000000000001e+00
	-2.647636552152313e-16
	1.490898100906481e-17
	-9.768207596914990e-16
	2.883140176589803e-06
	7.101610237341709e-05
	1.063665279350047e-05

 106	1.060000000000001e+00
	-2.634022838933694e-16
	1.498092527816012e-17
	-9.824507495476745e-16
	3.030904158977473e-06
	7.350541834968245e-05
	1.135926017603802e-05

 107	1.070000000000001e+00
	-2.620944600009114e-16
	1.504778822212772e-17
	-9.878049557134078e-16
	3.182368116537910e-06
	7.597104565254379e-05
	1.210664146550748e-05

 108	1.080000000000001e+00
	-2.608371117725032e-16
	1.510977740776509e-17
	-9.928974190891949e-16
	3.337600366787720e-06
	7.841236977244565e-05
	1.287855691514046e-05

 109	1.090000000000001e+00
	-2.596272971360083e-16
	1.516709312058411e-17
	-9.977417404438287e-16
	3.496673101941244e-06
	8.082888673359967e-05
	1.367476014317061e-05

 110	1.100000000000001e+00
	-2.584622021254106e-16
	1.521992796013289e-17
	-1.002351065935576e-15
	3.659662212826277e-06
	8.322018059628030e-05
	1.449500126617071e-05

 111	1.110000000000001e+00
	-2.573391440943554e-16
	1.526846630243844e-17
	-1.006738055510113e-15
	3.826646621440616e-06
	8.558589495576653e-05
	1.533902619888638e-05

 112	1.120000000000001e+00
	-2.562555706571442e-16
	1.531288400514385e-17
	-1.010914870710369e-15
	3.997707997047844e-06
	8.792571492741587e-05
	1.620657751511210e-05

 113	1.130000000000001e+00
	-2.552090582710088e-16
	1.535334818324598e-17
	-1.014893165900412e-15
	4.172930489769844e-06
	9.023935200329199e-05
	1.709739478407436e-05

 114	1.140000000000001e+00
	-2.541973099982783e-16
	1.539001706910128e-17
	-1.018684084639266e-15
	4.352400530074709e-06
	9.252653229918038e-05
	1.801121477284086e-05

 115	1.150000000000001e+00
	-2.532181525966699e-16
	1.542303994465713e-17
	-1.022298260461051e-15
	4.536206684599088e-06
	9.478698762444933e-05
	1.894777154576342e-05

 116	1.160000000000001e+00
	-2.522695330699583e-16
	1.545255713487538e-17
	-1.025745821383975e-15
	4.724439559877018e-06
	9.702044887742961e-05
	1.990679648663732e-05

 117	1.170000000000001e+00
	-2.513495147959841e-16
	1.547870005231996e-17
	-1.029036397536048e-15
	4.917191746666725e-06
	9.922664133650691e-05
	2.088801826462736e-05

 118	1.180000000000001e+00
	-2.504562733346348e-16
	1.550159128386160e-17
	-1.032179131348663e-15
	5.114557798627014e-06
	1.014052814798056e-04
	2.189116276103327e-05

 119	1.190000000000001e+00
	-2.495880920050733e-16
	1.552134471139363e-17
	-1.035182689829523e-15
	5.316634240067644e-06
	1.035560750230517e-04
	2.291595297058026e-05

 120	1.200000000000001e+00
	-2.487433573092396e-16
	1.553806565934351e-17
	-1.038055278483265e-15
	5.523519598374734e-06
	1.056787159155582e-04
	2.396210888808006e-05

 121	1.210000000000001e+00
	-2.479205542674868e-16
	1.555185106259738e-17
	-1.040804656500986e-15
	5.735314457485423e-06
	1.077728860782576e-04
	2.502934738892432e-05

 122	1.220000000000001e+00
	-2.471182617221112e-16
	1.556278964922614e-17
	-1.043438152888751e-15
	5.952121529464111e-06
	1.098382557057061e-04
	2.611738210991500e-05

 123	1.230000000000001e+00
	-2.463351476555248e-16
	1.557096213310766e-17
	-1.045962683249672e-15
	6.174045741816930e-06
	1.118744839864146e-04
	2.722592333531470e-05

 124	1.240000000000001e+00
	-2.455699645617582e-16
	1.557644141218338e-17
	-1.048384766974709e-15
	6.401194338684549e-06
	1.138812201233390e-04
	2.835467789168889e-05

 125	1.250000000000001e+00
	-2.448215449029088e-16
	1.557929276866709e-17
	-1.050710544633704e-15
	6.633676994483289e-06
	1.158581045594449e-04
	2.950334905404996e-05

 126	1.260000000000001e+00
	-2.440887966758961e-16
	1.557957406804421e-17
	-1.052945795390842e-15
	6.871605938929259e-06
	1.178047703324990e-04
	3.067163646495681e-05

 127	1.270000000000001e+00
	-2.433706991095002e-16
	1.557733595416155e-17
	-1.055095954297631e-15
	7.115096092691849e-06
	1.197208444992075e-04
	3.185923606755378e-05

 128	1.280000000000001e+00
	-2.426662985069306e-16
	1.557262203811783e-17
	-1.057166129342195e-15
	7.364265213185571e-06
	1.216059495819433e-04
	3.306584005299477e-05

 129	1.290000000000001e+00
	-2.419747042451577e-16
	1.556546907902353e-17
	-1.059161118156147e-15
	7.619234050234822e-06
	1.234597050020746e-04
	3.429113682229460e-05

 130	1.300000000000001e+00
	-2.412950849388074e-16
	1.555590715501198e-17
	-1.061085424299945e-15
	7.880126511536601e-06
	1.252817284726374e-04
	3.553481096232679e-05

 131	1.310000000000001e+00
	-2.406266647734793e-16
	1.554395982315538e-17
	-1.062943273064780e-15
	8.147069838011617e-06
	1.270716373301771e-04
	3.679654323545742e-05

 132	1.320000000000001e+00
	-2.399687200109353e-16
	1.552964426717246e-17
	-1.064738626743729e-15
	8.420194789276415e-06
	1.288290497912509e-04
	3.807601058212845e-05

 133	1.330000000000001e+00
	-2.393205756665401e-16
	1.551297143201322e-17
	-1.066475199337607e-15
	8.699635839594407e-06
	1.305535861236054e-04
	3.937288613558561e-05

 134	1.340000000000001e+00
	-2.386816023576939e-16
	1.549394614457440e-17
	-1.068156470671704e-15
	8.985531384773944e-06
	1.322448697256090e-04
	4.068683924786041e-05

 135	1.350000000000001e+00
	-2.380512133206042e-16
	1.547256721993964e-17
	-1.069785699908787e-15
	9.278023960582048e-06
	1.339025281103071e-04
	4.201753552607078e-05

 136	1.360000000000001e+00
	-2.374288615916829e-16
	1.544882755265413e-17
	-1.071365938451354e-15
	9.577260473333398e-06
	1.355261937926219e-04
	4.336463687807626e-05

 137	1.370000000000001e+00
	-2.368140373489862e-16
	1.542271419263740e-17
	-1.072900042232583e-15
	9.883392443399360e-06
	1.371155050798507e-04
	4.472780156651969e-05

 138	1.380000000000001e+00
	-2.362062654084618e-16
	1.539420840541289e-17
	-1.074390683400665e-15
	1.019657626246223e-05
	1.386701067668393e-04
	4.610668427029373e-05

 139	1.390000000000001e+00
	-2.356051028692855e-16
	1.536328571639045e-17
	-1.075840361405504e-15
	1.051697346541701e-05
	1.401896507380874e-04
	4.750093615249035e-05

 140	1.400000000000001e+00
	-2.350101369022371e-16
	1.532991593898116e-17
	-1.077251413500245e-15
	1.084475101789723e-05
	1.416737964796642e-04
	4.891020493391547e-05

 141	1.410000000000001e+00
	-2.344209826748311e-16
	1.529406318635369e-17
	-1.078626024672785e-15
	1.118008162047506e-05
	1.431222115042214e-04
	5.033413497128498e-05

 142	1.420000000000001e+00
	-2.338372814068133e-16
	1.525568586665938e-17
	-1.079966237024554e-15
	1.152314403065587e-05
	1.445345716926292e-04
	5.177236733924871e-05

 143	1.430000000000001e+00
	-2.332586985496019e-16
	1.521473666156255e-17
	-1.081273958615384e-15
	1.187412340385786e-05
	1.459105615558850e-04
	5.322453991542796e-05

 144	1.440000000000001e+00
	-2.326849220832690e-16
	1.517116248791216e-17
	-1.082550971794431e-15
	1.223321165463382e-05
	1.472498744209596e-04
	5.469028746768685e-05

 145	1.450000000000001e+00
	-2.321156609247679e-16
	1.512490444238326e-17
	-1.083798941037833e-15
	1.260060783945604e-05
	1.485522125442053e-04
	5.616924174289686e-05

 146	1.460000000000001e+00
	-2.315506434412344e-16
	1.507589772890303e-17
	-1.085019420314185e-15
	1.297651856244366e-05
	1.498172871558406e-04
	5.766103155648628e-05

 147	1.470000000000001e+00
	-2.309896160623561e-16
	1.502407156865635e-17
	-1.086213859999084e-15
	1.336115840546307e-05
	1.510448184389116e-04
	5.916528288210230e-05

 148	1.480000000000001e+00
	-2.304323419860057e-16
	1.496934909244182e-17
	-1.087383613359897e-15
	1.375475038407297e-05
	1.522345354459677e-04
	6.068161894074808e-05

 149	1.490000000000001e+00
	-2.298785999715422e-16
	1.491164721512018e-17
	-1.088529942631666e-15
	1.415752643081236e-05
	1.533861759565576e-04
	6.220966028878774e-05

 150	1.500000000000001e+00
	-2.293281832154101e-16
	1.485087649186593e-17
	-1.089654024704663e-15
	1.456972790733592e-05
	1.544994862784882e-04
	6.374902490424107e-05

 151	1.510000000000001e+00
	-2.287808983039064e-16
	1.478694095589701e-17
	-1.090756956443590e-15
	1.499160614688326e-05
	1.555742209956799e-04
	6.529932827082113e-05

 152	1.520000000000001e+00
	-2.282365642382264e-16
	1.471973793732097e-17
	-1.091839759657813e-15
	1.542342302851377e-05
	1.566101426653466e-04
	6.686018345919362e-05

 153	1.530000000000001e+00
	-2.276950115271375e-16
	1.464915786269595e-17
	-1.092903385741362e-15
	1.586545158444247e-05
	1.576070214671701e-04
	6.843120120496588e-05

 154	1.540000000000001e+00
	-2.271560813428744e-16
	1.457508403486405e-17
	-1.093948720000698e-15
	1.631797664165509e-05
	1.585646348071325e-04
	7.001198998293733e-05

 155	1.550000000000001e+00
	-2.266196247360874e-16
	1.449739239257245e-17
	-1.094976585687480e-15
	1.678129549875481e-05
	1.594827668787146e-04
	7.160215607717231e-05

 156	1.560000000000001e+00
	-2.260855019059115e-16
	1.441595124935387e-17
	-1.095987747752823e-15
	1.725571863867245e-05
	1.603612081843071e-04
	7.320130364648417e-05

 157	1.570000000000001e+00
	-2.255535815214449e-16
	1.433062101109505e-17
	-1.096982916338721e-15
	1.774157047743746e-05
	1.611997550198844e-04
	7.480903478494529e-05

 158	1.580000000000001e+00
	-2.250237400911507e-16
	1.424125387167712e-17
	-1.097962750021522e-15
	1.823919014863153e-05
	1.619982089263274e-04
	7.642494957707454e-05

 159	1.590000000000001e+00
	-2.244958613769076e-16
	1.414769348602911e-17
	-1.098927858821582e-15
	1.874893232239455e-05
	1.627563761112336e-04
	7.804864614738727e-05

 160	1.600000000000001e+00
	-2.239698358496393e-16
	1.404977461989103e-17
	-1.099878806992423e-15
	1.927116805688589e-05
	1.634740668456597e-04
	7.967972070403255e-05

 161	1.610000000000001e+00
	-2.234455601836440e-16
	1.394732277554323e-17
	-1.100816115601987e-15
	1.980628567887871e-05
	1.641510948410390e-04
	8.131776757629524e-05

 162	1.620000000000001e+00
	-2.229229367869356e-16
	1.384015379271559e-17
	-1.101740264917818e-15
	2.035469168862474e-05
	1.647872766125116e-04
	8.296237924579277e-05

 163	1.630000000000001e+00
	-2.224018733650876e-16
	1.372807342385336e-17
	-1.102651696607323e-15
	2.091681168221360e-05
	1.653824308361683e-04
	8.461314637126820e-05

 164	1.640000000000001e+00
	-2.218822825162316e-16
	1.361087688287958e-17
	-1.103550815763534e-15
	2.149309128229442e-05
	1.659363777092386e-04
	8.626965780696314e-05

 165	1.650000000000001e+00
	-2.213640813550311e-16
	1.348834836656126e-17
	-1.104437992766162e-15
	2.208399706515385e-05
	1.664489383241352e-04
	8.793150061465048e-05

 166	1.660000000000001e+00
	-2.208471911636003e-16
	1.336026054755748e-17
	-1.105313564987085e-15
	2.269001746867178e-05
	1.669199340695000e-04
	8.959826006953190e-05

 167	1.670000000000001e+00
	-2.203315370674765e-16
	1.322637403820394e-17
	-1.106177838348794e-15
	2.331166366152085e-05
	1.673491860740675e-04
	9.126951966034588e-05

 168	1.680000000000001e+00
	-2.198170477348978e-16
	1.308643682406945e-17
	-1.107031088743783e-15
	2.394947034905489e-05
	1.677365147122700e-04
	9.294486108420613e-05

 169	1.690000000000001e+00
	-2.193036550977584e-16
	1.294018366630812e-17
	-1.107873563322267e-15
	2.460399648557176e-05
	1.680817391941110e-04
	9.462386423689715e-05

 170	1.700000000000001e+00
	-2.187912940927448e-16
	1.278733547182762e-17
	-1.108705481655133e-15
	2.527582585597790e-05
	1.683846772659437e-04
	9.630610719959983e-05

 171	1.710000000000001e+00
	-2.182799024212613e-16
	1.262759863029874e-17
	-1.109527036778528e-15
	2.596556748230039e-05
	1.686451450533858e-04
	9.799116622330852e-05

 172	1.720000000000001e+00
	-2.177694203268585e-16
	1.246066431704753e-17
	-1.110338396126021e-15
	2.667385580200312e-05
	1.688629570826535e-04
	9.967861571253630e-05

 173	1.730000000000001e+00
	-2.172597903889995e-16
	1.228620776090028e-17
	-1.111139702353866e-15
	2.740135055575907e-05
	1.690379265220131e-04
	1.013680282102999e-04

 174	1.740000000000001e+00
	-2.167509573320689e-16
	1.210388747609303e-17
	-1.111931074064459e-15
	2.814873631238619e-05
	1.691698656906717e-04
	1.030589743868132e-04

 175	1.750000000000001e+00
	-2.162428678486383e-16
	1.191334445741746e-17
	-1.112712606432757e-15
	2.891672154838472e-05
	1.692585868880163e-04
	1.047510230348280e-04

 176	1.760000000000001e+00
	-2.157354704360810e-16