Title: **.subckt gm_id_pmos
Date: Wed Jun  2 14:59:16  2021
Plotname: DC transfer characteristic
Flags: real
No. Variables: 7
No. Points: 181
Variables:
	0	v(v-sweep)	voltage
	1	@m.xm1.msky130_fd_pr__pfet_01v8[cgb]	capacitance
	2	@m.xm1.msky130_fd_pr__pfet_01v8[cgd]	capacitance
	3	@m.xm1.msky130_fd_pr__pfet_01v8[cgs]	capacitance
	4	@m.xm1.msky130_fd_pr__pfet_01v8[gds]	admittance
	5	@m.xm1.msky130_fd_pr__pfet_01v8[gm]	admittance
	6	i(@m.xm1.msky130_fd_pr__pfet_01v8[id])	current
Values:
 0	0.000000000000000e+00
	-9.327655451579146e-16
	6.012631636199412e-21
	-5.298752510150998e-18
	4.316223196928665e-17
	4.362951428646841e-15
	1.472961095291725e-16

 1	1.000000000000000e-02
	-9.224730433688005e-16
	6.487546779490866e-21
	-5.601312579646052e-18
	5.804168442192043e-17
	5.866915279479276e-15
	1.980748179907054e-16

 2	2.000000000000000e-02
	-9.124880856706587e-16
	6.997687042029328e-21
	-5.927356657383117e-18
	7.805003309110686e-17
	7.889239879211046e-15
	2.663572516988928e-16

 3	3.000000000000000e-02
	-9.027957346865262e-16
	7.545681384959166e-21
	-6.278559485038344e-18
	1.049548864448957e-16
	1.060854342470550e-14
	3.581761133233420e-16

 4	4.000000000000000e-02
	-8.933818750581690e-16
	8.134380106450969e-21
	-6.656737312116396e-18
	1.411328663394183e-16
	1.426496961376941e-14
	4.816427679440227e-16

 5	5.000000000000000e-02
	-8.842331551633543e-16
	8.766876307859757e-21
	-7.063861250045513e-18
	1.897793428718666e-16
	1.918136726376130e-14
	6.476631861478563e-16

 6	6.000000000000000e-02
	-8.753369320154082e-16
	9.446529177200304e-21
	-7.502071745364757e-18
	2.551903454031693e-16
	2.579175355861307e-14
	8.709003117667901e-16

 7	7.000000000000001e-02
	-8.666812192391855e-16
	1.017698913916306e-20
	-7.973694198538457e-18
	3.431414583130966e-16
	3.467956170495350e-14
	1.171067582164071e-15

 8	8.000000000000000e-02
	-8.582546379927737e-16
	1.096222491044735e-20
	-8.481255748214810e-18
	4.613970199504889e-16
	4.662903009276874e-14
	1.574667406903945e-15

 9	9.000000000000000e-02
	-8.500463706890570e-16
	1.180655248923772e-20
	-9.027503234389988e-18
	6.203943649060180e-16
	6.269423843363655e-14
	2.117327446815050e-15

 10	9.999999999999999e-02
	-8.420461173630413e-16
	1.271466609864090e-20
	-9.615422348254206e-18
	8.341631696206581e-16
	8.429183543258884e-14
	2.846939906445942e-15

 11	1.100000000000000e-01
	-8.342440545278821e-16
	1.369167109623042e-20
	-1.024825797172131e-17
	1.121560507584883e-15
	1.133255644897412e-13
	3.827879311065584e-15

 12	1.200000000000000e-01
	-8.266307963633147e-16
	1.474311885584044e-20
	-1.092953570595976e-17
	1.507929757756949e-15
	1.523534543176774e-13
	5.146668433731478e-15

 13	1.300000000000000e-01
	-8.191973580833342e-16
	1.587504362365215e-20
	-1.166308458582625e-17
	2.027328402201445e-15
	2.048122343832147e-13
	6.919588280745083e-15

 14	1.400000000000000e-01
	-8.119351213351642e-16
	1.709400134856156e-20
	-1.245306097599575e-17
	2.725519140898598e-15
	2.753184715185184e-13
	9.302897133537665e-15

 15	1.500000000000000e-01
	-8.048358014873674e-16
	1.840711048680132e-20
	-1.330397364480531e-17
	3.663984832648499e-15
	3.700725161972525e-13
	1.250654998487285e-14

 16	1.600000000000000e-01
	-7.978914166716830e-16
	1.982209478271102e-20
	-1.422071001327705e-17
	4.925316107454549e-15
	4.974001402122129e-13
	1.681261245777064e-14

 17	1.700000000000000e-01
	-7.910942584499585e-16
	2.134732803111854e-20
	-1.520856357931009e-17
	6.620438465574080e-15
	6.684784610114573e-13
	2.259996788721114e-14

 18	1.800000000000000e-01
	-7.844368639844602e-16
	2.299188083158549e-20
	-1.627326252031225e-17
	8.898303051633589e-15
	8.983083278252336e-13
	3.037745641353177e-14

 19	1.900000000000000e-01
	-7.779119895966738e-16
	2.476556935019002e-20
	-1.742099948125169e-17
	1.195887495008875e-14
	1.207016029435351e-12
	4.082830524595717e-14

 20	2.000000000000000e-01
	-7.715125856063456e-16
	2.667900610975333e-20
	-1.865846255870700e-17
	1.607053174182360e-14
	1.621594588021691e-12
	5.486966848829161e-14

 21	2.100000000000000e-01
	-7.652317723493849e-16
	2.874365283352472e-20
	-1.999286749441312e-17
	2.159335539379239e-14
	2.178231121282105e-12
	7.373237028378893e-14

 22	2.200000000000001e-01
	-7.590628172797178e-16
	3.097187536907220e-20
	-2.143199109327175e-17
	2.901029129251687e-14
	2.925414482065430e-12
	9.906763759947491e-14

 23	2.300000000000001e-01
	-7.529991130673987e-16
	3.337700071717836e-20
	-2.298420588001237e-17
	3.896879694994809e-14
	3.928080064397391e-12
	1.330898503279484e-13

 24	2.400000000000001e-01
	-7.470341566124209e-16
	3.597337618322931e-20
	-2.465851600465130e-17
	5.233645805836765e-14
	5.273130652956331e-12
	1.787672970471396e-13

 25	2.500000000000001e-01
	-7.411615289017237e-16
	3.877643065423385e-20
	-2.646459439856673e-17
	7.027517310650481e-14
	7.076778930457354e-12
	2.400768240224062e-13

 26	2.600000000000001e-01
	-7.353748756458331e-16
	4.180273798127151e-20
	-2.841282116924873e-17
	9.433997821777414e-14
	9.494295437175056e-12
	3.223433827211153e-13

 27	2.700000000000001e-01
	-7.296678886413577e-16
	4.507008241277532e-20
	-3.051432320134023e-17
	1.266104996102808e-13
	1.273292346965848e-11
	4.326921708663568e-13

 28	2.800000000000001e-01
	-7.240342878171747e-16
	4.859752597664232e-20
	-3.278101490332502e-17
	1.698655035691068e-13
	1.706894908740102e-11
	5.806497652022505e-13

 29	2.900000000000001e-01
	-7.184678039350269e-16
	5.240547764649430e-20
	-3.522564000182274e-17
	2.278142103822876e-13
	2.287020079478943e-11
	7.789419033247674e-13

 30	3.000000000000001e-01
	-7.129621619302239e-16
	5.651576404756182e-20
	-3.786181423780038e-17
	3.054021238157271e-13
	3.062561108754809e-11
	1.044550041514676e-12

 31	3.100000000000001e-01
	-7.075110648951545e-16
	6.095170135863028e-20
	-4.070406876000868e-17
	4.092143016677696e-13
	4.098391220217079e-11
	1.400107265035205e-12

 32	3.200000000000001e-01
	-7.021081787275414e-16
	6.573816794648211e-20
	-4.376789393953882e-17
	5.480054755771436e-13
	5.480407042903136e-11
	1.875737431318743e-12

 33	3.300000000000001e-01
	-6.967471174870306e-16
	7.090167712674419e-20
	-4.706978324477998e-17
	7.333944452251193e-13
	7.322069177989243e-11
	2.511470532098453e-12

 34	3.400000000000001e-01
	-6.914214295278080e-16
	7.647044927859465e-20
	-5.062727671748074e-17
	9.807699292307053e-13
	9.772835198905601e-11
	3.360403118275744e-12

 35	3.500000000000001e-01
	-6.861245845014877e-16
	8.247448234934290e-20
	-5.445900347752052e-17
	1.310466697042700e-12
	1.302895957141619e-10
	4.492816074738359e-12

 36	3.600000000000002e-01
	-6.808499613535974e-16
	8.894561956769854e-20
	-5.858472255608712e-17
	1.749284352848059e-12
	1.734721695202967e-10
	6.001513582841008e-12

 37	3.700000000000002e-01
	-6.755908374685073e-16
	9.591761294122941e-20
	-6.302536121409175e-17
	2.332436399520156e-12
	2.306218227259706e-10
	8.008706687064173e-12

 38	3.800000000000002e-01
	-6.703403791512260e-16
	1.034261808439976e-19
	-6.780304974492191e-17
	3.106033651301734e-12
	3.060776057393638e-10
	1.067483141164027e-11

 39	3.900000000000002e-01
	-6.650916336703743e-16
	1.115090577054894e-19
	-7.294115158868022e-17
	4.130222687351100e-12
	4.054368374081391e-10
	1.420976226427303e-11

 40	4.000000000000002e-01
	-6.598375231240341e-16
	1.202060334928168e-19
	-7.846428739961776e-17
	5.483115220056418e-12
	5.358765606806875e-10
	1.888695252898350e-11

 41	4.100000000000002e-01
	-6.545708404289535e-16
	1.295589803371919e-19
	-8.439835151112899e-17
	7.265655621719029e-12
	7.065370661459470e-10
	2.506109561574438e-11

 42	4.200000000000002e-01
	-6.492842477731266e-16
	1.396118632958573e-19
	-9.077051903532606e-17
	9.607578261542885e-12
	9.289706200903146e-10
	3.318994644511113e-11

 43	4.300000000000002e-01
	-6.439702779108232e-16
	1.504107318705397e-19
	-9.760924162211630e-17
	1.267459997172206e-11
	1.217654615109111e-09
	4.386095493479707e-11

 44	4.400000000000002e-01
	-6.386213387186074e-16
	1.620036885163041e-19
	-1.049442296814534e-16
	1.667697191572016e-11
	1.590562848418800e-09
	5.782332957418436e-11

 45	4.500000000000002e-01
	-6.332297214652335e-16
	1.744408300104480e-19
	-1.128064186669664e-16
	2.187947608396455e-11
	2.069781721949059e-09
	7.602605254401668e-11

 46	4.600000000000002e-01
	-6.277876132822174e-16
	1.877741571775940e-19
	-1.212279168087421e-16
	2.861289329569427e-11
	2.682150549453740e-09
	9.966219784519008e-11

 47	4.700000000000003e-01
	-6.222871143471990e-16
	2.020574481424017e-19
	-1.302419315036124e-16
	3.728689442089824e-11
	3.459898235398963e-09
	1.302196598023491e-10

 48	4.800000000000003e-01
	-6.167202603107112e-16
	2.173460899973633e-19
	-1.398826714170415e-16
	4.840422262902131e-11
	4.441244504590111e-09
	1.695380980800826e-10

 49	4.900000000000003e-01
	-6.110790506663452e-16
	2.336968630815833e-19
	-1.501851081577036e-16
	6.257595640111890e-11
	5.670934498312586e-09
	2.198715871876743e-10

 50	5.000000000000002e-01
	-6.053554845865540e-16
	2.511676691614076e-19
	-1.611849737360581e-16
	8.053758984946689e-11
	7.200688157010422e-09
	2.839561837432096e-10

 51	5.100000000000002e-01
	-5.995415996538990e-16
	2.698172135218594e-19
	-1.729187806348009e-16
	1.031656910982769e-10
	9.089566993492616e-09
	3.650815840223191e-10

 52	5.200000000000002e-01
	-5.936295212117773e-16
	2.897046150310335e-19
	-1.854231687818555e-16
	1.314949539981055e-10
	1.140428150779739e-08
	4.671660902884565e-10

 53	5.300000000000002e-01
	-5.876115190439871e-16
	3.108889489635363e-19
	-1.987348186520539e-16
	1.667356619596635e-10
	1.421952208147417e-08
	5.948346988062491e-10

 54	5.400000000000003e-01
	-5.814800715909695e-16
	3.334287190537226e-19
	-2.128901450352836e-16
	2.102918580858675e-10
	1.761842409941190e-08
	7.535010525735523e-10

 55	5.500000000000003e-01
	-5.752279382536101e-16
	3.573812544187329e-19
	-2.279249476604088e-16
	2.637808668725094e-10
	2.169332168096063e-08
	9.494553479938805e-10

 56	5.600000000000003e-01
	-5.688482397533827e-16
	3.828020294141979e-19
	-2.438740177210905e-16
	3.290551965396078e-10
	2.654696664349599e-08
	1.189961953332350e-09

 57	5.700000000000003e-01
	-5.623345463016705e-16
	4.097439061269097e-19
	-2.607707003225654e-16
	4.082282048023804e-10
	3.229439190736435e-08
	1.483372294487543e-09

 58	5.800000000000003e-01
	-5.556809730737210e-16
	4.382563012391504e-19
	-2.786464140641095e-16
	5.037051784018068e-10
	3.906557970307787e-08
	1.839260277863265e-09

 59	5.900000000000003e-01
	-5.488822821849253e-16
	4.683842814283901e-19
	-2.975301303943528e-16
	6.182216195679886e-10
	4.700906065826194e-08
	2.268588960964332e-09

 60	6.000000000000003e-01
	-5.419339900324816e-16
	5.001675942823808e-19
	-3.174478170173085e-16
	7.548905436474954e-10
	5.629653188271687e-08
	2.783918249510886e-09

 61	6.100000000000003e-01
	-5.348324785006568e-16
	5.336396448768973e-19
	-3.384218514627899e-16
	9.172604981717255e-10
	6.712855473401676e-08
	3.399664129357936e-09

 62	6.200000000000003e-01
	-5.275751081431820e-16
	5.688264316148253e-19
	-3.604704129251101e-16
	1.109385866684816e-09
	7.974138833740224e-08
	4.132420502387631e-09

 63	6.300000000000003e-01
	-5.201603310658929e-16
	6.057454585589351e-19
	-3.836068625574313e-16
	1.335910881344845e-09
	9.441503998916150e-08
	5.001355355815025e-09

 64	6.400000000000003e-01
	-5.125878008547490e-16
	6.444046451682096e-19
	-4.078391245039977e-16
	1.602168687922840e-09
	1.114826681988985e-07
	6.028694055911586e-09

 65	6.500000000000004e-01
	-5.048584765506049e-16
	6.848012578936442e-19
	-4.331690819559260e-16
	1.914296813806107e-09
	1.313415521934353e-07
	7.240304289225552e-09

 66	6.600000000000004e-01
	-4.969747173873797e-16
	7.269208912957838e-19
	-4.595920043071713e-16
	2.279370483966030e-09
	1.544659334400715e-07
	8.666399764414524e-09

 67	6.700000000000004e-01
	-4.889403648111275e-16
	7.707365289790039e-19
	-4.870960229306306e-16
	2.705555384601312e-09
	1.814221292324664e-07
	1.034238331801883e-08

 68	6.800000000000004e-01
	-4.807608082107065e-16
	8.162077164495859e-19
	-5.156616740487137e-16
	3.202281640777028e-09
	2.128864049706364e-07
	1.230985451177055e-08

 69	6.900000000000004e-01
	-4.724430308412024e-16
	8.632798787521800e-19
	-5.452615274998871e-16
	3.780440888286511e-09
	2.496661598519648e-07
	1.461781203585759e-08

 70	7.000000000000004e-01
	-4.639956326294913e-16
	9.118838152002859e-19
	-5.758599197784115e-16
	4.452608303521429e-09
	2.927250179675746e-07
	1.732408699781241e-08

 71	7.100000000000004e-01
	-4.554288269312254e-16
	9.619354015148764e-19
	-6.074128084525348e-16
	5.233291217123985e-09
	3.432124065706555e-07
	2.049704909370114e-08

 72	7.200000000000004e-01
	-4.467544088646041e-16
	1.013335526113515e-18
	-6.398677628912084e-16
	6.139205369712672e-09
	4.024981215455904e-07
	2.421763313923592e-08

 73	7.300000000000004e-01
	-4.379856935721599e-16
	1.065970282128585e-18
	-6.731641031457661e-16
	7.189578842942765e-09
	4.722121931898438e-07
	2.858173760850345e-08

 74	7.400000000000004e-01
	-4.291374236383551e-16
	1.119711430063604e-18
	-7.072331948986214e-16
	8.406482067908554e-09
	5.542900291095856e-07
	3.370304842299207e-08

 75	7.500000000000004e-01
	-4.202256458865157e-16
	1.174417138016553e-18
	-7.419989037262100e-16
	9.815179912751221e-09
	6.510222723373186e-07
	3.971633850011442e-08

 76	7.600000000000005e-01
	-4.112675588500685e-16
	1.229932997418038e-18
	-7.773782067134758e-16
	1.144449852480934e-08
	7.651080160199771e-07
	4.678128420445472e-08

 77	7.700000000000005e-01
	-4.022813333071805e-16
	1.286093302658648e-18
	-8.132819539430740e-16
	1.332719523452851e-08
	8.997089151500591e-07
	5.508682102046149e-08

 78	7.800000000000005e-01
	-3.932859093255563e-16
	1.342722573297465e-18
	-8.496157668459583e-16
	1.550031440569134e-08
	1.058500314838944e-06
	6.485602932509769e-08

 79	7.900000000000005e-01
	-3.843007742240959e-16
	1.399637288283247e-18
	-8.862810551476255e-16
	1.800550581295235e-08
	1.245713816799667e-06
	7.635149403494268e-08

 80	8.000000000000005e-01
	-3.753457266621280e-16
	1.456647793312400e-18
	-9.231761294797128e-16
	2.088927540444663e-08
	1.466163868924074e-06
	8.988101696099332e-08

 81	8.100000000000005e-01
	-3.664406326645982e-16
	1.513560335589145e-18
	-9.601973829301130e-16
	2.420313201100680e-08
	1.725249253877991e-06
	1.058034777516007e-07

 82	8.200000000000005e-01
	-3.576051797445944e-16
	1.570179175256709e-18
	-9.972405121064810e-16
	2.800358898045385e-08
	2.028919185494980e-06
	1.245345415652913e-07

 83	8.300000000000005e-01
	-3.488586353703962e-16
	1.626308719933445e-18
	-1.034201746850773e-15
	3.235197852554015e-08
	2.383593639182545e-06
	1.465518071375941e-07

 84	8.400000000000005e-01
	-3.402196158377941e-16
	1.681755628271620e-18
	-1.070979057645089e-15
	3.731404064241489e-08
	2.796029138100176e-06
	1.723988915119296e-07

 85	8.500000000000005e-01
	-3.317058711627415e-16
	1.736330830265131e-18
	-1.107473310983783e-15
	4.295925942156444e-08
	3.273124984103947e-06
	2.026878768084964e-07

 86	8.600000000000005e-01
	-3.233340909341812e-16
	1.789851416018111e-18
	-1.143589345457197e-15
	4.935993825529494e-08
	3.821671043150743e-06
	2.380995229890563e-07

 87	8.700000000000006e-01
	-3.151197352056041e-16
	1.842142350568730e-18
	-1.179236944827560e-15
	5.659003120028341e-08
	4.448046316810411e-06
	2.793807009387056e-07

 88	8.800000000000006e-01
	-3.070768935102887e-16
	1.893037979749099e-18
	-1.214331688744063e-15
	6.472377800072357e-08
	5.157886626025219e-06
	3.273386377777860e-07

 89	8.900000000000006e-01
	-2.992181740178121e-16
	1.942383300492272e-18
	-1.248795666671874e-15
	7.383422049605950e-08
	5.955748137334841e-06
	3.828317929953883e-07

 90	9.000000000000006e-01
	-2.915546237680475e-16
	1.990034977971598e-18
	-1.282558045809560e-15
	8.399170253216704e-08
	6.844799174349957e-06
	4.467574829393368e-07

 91	9.100000000000006e-01
	-2.840956798788724e-16
	2.035862100986734e-18
	-1.315555488960225e-15
	9.526246832845402e-08
	7.826573964638214e-06
	5.200367060093437e-07

 92	9.200000000000006e-01
	-2.768491506733511e-16
	2.079746675642989e-18
	-1.347732423247126e-15
	1.077074715093612e-07
	8.900817656412124e-06
	6.035969405409706e-07

 93	9.300000000000006e-01
	-2.698212248490488e-16
	2.121583865224686e-18
	-1.379041165010550e-15
	1.213814878103075e-07
	1.006544233642871e-05
	6.983539366349562e-07

 94	9.400000000000006e-01
	-2.630165061426472e-16
	2.161281990944157e-18
	-1.409441910026258e-15
	1.363325916490441e-07
	1.131660046962347e-05
	8.051936560686998e-07

 95	9.500000000000006e-01
	-2.564380704413119e-16
	2.198762313757618e-18
	-1.438902601240665e-15
	1.526020162657483e-07
	1.264886771979352e-05
	9.249555060784076e-07

 96	9.600000000000006e-01
	-2.500875419611444e-16
	2.233958621577572e-18
	-1.467398688474065e-15
	1.702243764522760e-07
	1.405551432548235e-05
	1.058417865967962e-06

 97	9.700000000000006e-01
	-2.439651849455881e-16
	2.266816648966163e-18
	-1.494912796000932e-15
	1.892281989905192e-07
	1.552883540251507e-05
	1.206286649201607e-06

 98	9.800000000000006e-01
	-2.380700073177159e-16
	2.297293357832489e-18
	-1.521434314620967e-15
	2.096366835835871e-07
	1.706050693618894e-05
	1.369187324812720e-06

 99	9.900000000000007e-01
	-2.323998728295297e-16
	2.325356107903288e-18
	-1.546958934862346e-15
	2.314686080316837e-07
	1.864193575133380e-05
	1.547660493266451e-06

 100	1.000000000000001e+00
	-2.269516184644647e-16
	2.350981744960591e-18
	-1.571488137412070e-15
	2.547392945289704e-07
	2.026457729690949e-05
	1.742160819843066e-06

 101	1.010000000000001e+00
	-2.217211741411353e-16
	2.374155633232125e-18
	-1.595028655858640e-15
	2.794615660911874e-07
	2.192020296681400e-05
	1.953058905206758e-06

 102	1.020000000000001e+00
	-2.167036821119097e-16
	2.394870656082531e-18
	-1.617591925477961e-15
	3.056466393077832e-07
	2.360110715622450e-05
	2.180645532599341e-06

 103	1.030000000000001e+00
	-2.118936138262435e-16
	2.413126206480092e-18
	-1.639193530205854e-15
	3.333049181226213e-07
	2.530025191737384e-05
	2.425137672546648e-06

 104	1.040000000000001e+00
	-2.072848824155718e-16
	2.428927185785123e-18
	-1.659852658223554e-15
	3.624466703627227e-07
	2.701135305844301e-05
	2.686685636127586e-06

 105	1.050000000000001e+00
	-2.028709493371199e-16
	2.442283026379609e-18
	-1.679591574824526e-15
	3.930825825722996e-07
	2.872891549351010e-05
	2.965380827809993e-06

 106	1.060000000000001e+00
	-1.986449240749814e-16
	2.453206750664596e-18
	-1.698435119506513e-15
	4.252241987330556e-07
	3.044822769382343e-05
	3.261263638635617e-06

 107	1.070000000000001e+00
	-1.945996561285759e-16
	2.461714076095281e-18
	-1.716410232598316e-15
	4.588842547942729e-07
	3.216532556350705e-05
	3.574331122528548e-06

 108	1.080000000000001e+00
	-1.907278188146862e-16
	2.467822573280047e-18
	-1.733545515228613e-15
	4.940769241850615e-07
	3.387693542230610e-05
	3.904544199265560e-06

 109	1.090000000000001e+00
	-1.870219846661478e-16
	2.471550881789787e-18
	-1.749870825101303e-15
	5.308179904046047e-07
	3.558040446969419e-05
	4.251834218321222e-06

 110	1.100000000000001e+00
	-1.834746924268146e-16
	2.472917986237419e-18
	-1.765416909372960e-15
	5.691249621438712e-07
	3.727362549780438e-05
	4.616108793629643e-06

 111	1.110000000000001e+00
	-1.800785058193774e-16
	2.471942553405152e-18
	-1.780215074937860e-15
	6.090171448300588e-07
	3.895496098326886e-05
	4.997256878732933e-06

 112	1.120000000000001e+00
	-1.768260644021749e-16
	2.468642329714914e-18
	-1.794296895610810e-15
	6.505156804939496e-07
	4.062317018975237e-05
	5.395153095432752e-06

 113	1.130000000000001e+00
	-1.737101269364865e-16
	2.463033597141927e-18
	-1.807693955047986e-15
	6.936435657780509e-07
	4.227734164222566e-05
	5.809661358813892e-06

 114	1.140000000000001e+00
	-1.707236077606395e-16
	2.455130684739224e-18
	-1.820437623747653e-15
	7.384256559394386e-07
	4.391683232042326e-05
	6.240637859835377e-06

 115	1.150000000000001e+00
	-1.678596067157516e-16
	2.444945532245572e-18
	-1.832558868109238e-15
	7.848886609669180e-07
	4.554121415403493e-05
	6.687933476137555e-06

 116	1.160000000000001e+00
	-1.651114331940388e-16
	2.432487301761661e-18
	-1.844088089283786e-15
	8.330611384710138e-07
	4.715022785651173e-05
	7.151395684642696e-06

 117	1.170000000000001e+00
	-1.624726248884215e-16
	2.417762033168327e-18
	-1.855054989402974e-15
	8.829734868184850e-07
	4.874374376956229e-05
	7.630870047933747e-06

 118	1.180000000000001e+00
	-1.599369611941545e-16
	2.400772347379410e-18
	-1.865488465668292e-15
	9.346579530018537e-07
	5.032172962825103e-05
	8.126201487887508e-06

 119	1.190000000000001e+00
	-1.574984755703793e-16
	2.381517141462636e-18
	-1.875416511924377e-15
	9.881485854933436e-07
	5.188422180282451e-05
	8.637234535081235e-06

 120	1.200000000000001e+00
	-1.551514579301768e-16
	2.359991399624141e-18
	-1.884866170481718e-15
	1.043481311917568e-06
	5.343130626309329e-05
	9.163814782403017e-06

 121	1.210000000000001e+00
	-1.528904602631126e-16
	2.336185944501243e-18
	-1.893863471060129e-15
	1.100693904887792e-06
	5.496309925758640e-05
	9.705788702053843e-06

 122	1.220000000000001e+00
	-1.507102963392349e-16
	2.310087252941034e-18
	-1.902433400707825e-15
	1.159826014393747e-06
	5.647973404245173e-05
	1.026300402421912e-05

 123	1.230000000000001e+00
	-1.486060397884900e-16
	2.281677280960279e-18
	-1.910599884049065e-15
	1.220919196232812e-06
	5.798135024679335e-05
	1.083530985160091e-05

 124	1.240000000000001e+00
	-1.465730202842832e-16
	2.250933302715024e-18
	-1.918385775099643e-15
	1.284016948600218e-06
	5.946808580500466e-05
	1.142255668086238e-05

 125	1.250000000000001e+00
	-1.446068181722881e-16
	2.217827759996739e-18
	-1.925812858920732e-15
	1.349164757092389e-06
	6.094007098596695e-05
	1.202459635424709e-05

 126	1.260000000000001e+00
	-1.427032578480363e-16
	2.182328119020464e-18
	-1.932901861543897e-15
	1.416410148350843e-06
	6.239742411535756e-05
	1.264128196026716e-05

 127	1.270000000000001e+00
	-1.408584001510526e-16
	2.144396731513694e-18
	-1.939672466759283e-15
	1.485802752577298e-06
	6.384024864891953e-05
	1.327246769863379e-05

 128	1.280000000000001e+00
	-1.390685340097736e-16
	2.103990697347662e-18
	-1.946143338511819e-15
	1.557394375175193e-06
	6.526863131005431e-05
	1.391800872146113e-05

 129	1.290000000000001e+00
	-1.373301675404352e-16
	2.061061726170763e-18
	-1.952332147795190e-15
	1.631239077815087e-06
	6.668264105405376e-05
	1.457776096015945e-05

 130	1.300000000000001e+00
	-1.356400187746292e-16
	2.015555995705173e-18
	-1.958255603068714e-15
	1.707393269277498e-06
	6.808232866372623e-05
	1.525158094527658e-05

 131	1.310000000000001e+00
	-1.339950061644576e-16
	1.967414004549643e-18
	-1.963929483347385e-15
	1.785915806493672e-06
	6.946772681743433e-05
	1.593932562477753e-05

 132	1.320000000000001e+00
	-1.323922389909544e-16
	1.916570417494137e-18
	-1.969368673229985e-15
	1.866868106282186e-06
	7.083885050120991e-05
	1.664085218482020e-05

 133	1.330000000000001e+00
	-1.308290077807268e-16
	1.862953901493652e-18
	-1.974587199234200e-15
	1.950314268366367e-06
	7.219569766225029e-05
	1.735601787593684e-05

 134	1.340000000000001e+00
	-1.293027748174432e-16
	1.806486950570621e-18
	-1.979598266901316e-15
	2.036321210353408e-06
	7.353825002234914e-05
	1.808467984661043e-05

 135	1.350000000000001e+00
	-1.278111648186308e-16
	1.747085698018267e-18
	-1.984414298216934e-15
	2.124958815462141e-06
	7.486647398729430e-05
	1.882669498551226e-05

 136	1.360000000000001e+00
	-1.263519558341828e-16
	1.684659714359519e-18
	-1.989046968968455e-15
	2.216300093902962e-06
	7.618032160252499e-05
	1.958191977310093e-05

 137	1.370000000000001e+00
	-1.249230704107476e-16
	1.619111789582370e-18
	-1.993507245725864e-15
	2.310421358941572e-06
	7.747973151689278e-05
	2.035021014284653e-05

 138	1.380000000000001e+00
	-1.235225670556603e-16
	1.550337698220292e-18
	-1.997805422189864e-15
	2.407402418819127e-06
	7.876462992564189e-05
	2.113142135200940e-05

 139	1.390000000000001e+00
	-1.221486320250719e-16
	1.478225945878093e-18
	-2.001951154701694e-15
	2.507326785856919e-06
	8.003493147111728e-05
	2.192540786165162e-05

 140	1.400000000000001e+00
	-1.207995714533007e-16
	1.402657495820488e-18
	-2.005953496752493e-15
	2.610281904245960e-06
	8.129054008554119e-05
	2.273202322537780e-05

 141	1.410000000000001e+00
	-1.194738038339970e-16
	1.323505474242954e-18
	-2.009820932367575e-15
	2.716359398211898e-06
	8.253134976474458e-05
	2.355111998616553e-05

 142	1.420000000000001e+00
	-1.181698528583441e-16
	1.240634852833675e-18
	-2.013561408273064e-15
	2.825655342457002e-06
	8.375724526524373e-05
	2.438254958055445e-05

 143	1.430000000000001e+00
	-1.168863406110699e-16
	1.153902107211961e-18
	-2.017182364779727e-15
	2.938270557015492e-06
	8.496810271970116e-05
	2.522616224940150e-05

 144	1.440000000000001e+00
	-1.156219811214160e-16
	1.063154849793060e-18
	-2.020690765341814e-15
	3.054310928918795e-06
	8.616379016776300e-05
	2.608180695436892e-05

 145	1.450000000000001e+00
	-1.143755742632876e-16
	9.682314355841212e-19
	-2.024093124768103e-15
	3.173887763356950e-06
	8.734416800066385e-05
	2.694933129929022e-05

 146	1.460000000000001e+00
	-1.131459999964566e-16
	8.689605393585747e-19
	-2.027395536078395e-15
	3.297118167343824e-06
	8.850908931893264e-05
	2.782858145554806e-05

 147	1.470000000000001e+00
	-1.119322129389098e-16
	7.651607025913622e-19
	-2.030603696011879e-15
	3.424125469250672e-06
	8.965840020311238e-05
	2.871940209059343e-05

 148	1.480000000000001e+00
	-1.107332372590294e-16
	6.566398484616961e-19
	-2.033722929204563e-15
	3.555039677967883e-06
	9.079193989770077e-05
	2.962163629873770e-05

 149	1.490000000000001e+00
	-1.095481618753175e-16
	5.431947631460604e-19
	-2.036758211061516e-15
	3.689997985892038e-06
	9.190954090857027e-05
	3.053512553335109e-05

 150	1.500000000000001e+00
	-1.083761359506716e-16
	4.246105415332652e-19
	-2.039714189356490e-15
	3.829145320416676e-06
	9.301102901400102e-05
	3.145970953960402e-05

 151	1.510000000000001e+00
	-1.072163646678052e-16
	3.006599953929109e-19
	-2.042595204596605e-15
	3.972634949133355e-06
	9.409622318917460e-05
	3.239522628688446e-05

 152	1.520000000000001e+00
	-1.060681052721757e-16
	1.711030219223639e-19
	-2.045405309193754e-15
	4.120629144526489e-06
	9.516493544359098e-05
	3.334151190002681e-05

 153	1.530000000000001e+00
	-1.049306633687735e-16
	3.568593048366731e-20
	-2.048148285487019e-15
	4.273299914569570e-06
	9.621697057037727e-05
	3.429840058847429e-05

 154	1.540000000000001e+00
	-1.038033894592106e-16
	-1.058592747778146e-19
	-2.050827662662260e-15
	4.430829806301215e-06
	9.725212580590965e-05
	3.526572457248776e-05

 155	1.550000000000001e+00
	-1.026856757057872e-16
	-2.538156588672971e-19
	-2.053446732616013e-15
	4.593412790171178e-06
	9.827019039757122e-05
	3.624331400549409e-05

 156	1.560000000000001e+00
	-1.015769529095266e-16
	-4.084821689913575e-19
	-2.056008564811169e-15
	4.761255233689335e-06
	9.927094507684341e-05
	3.723099689163898e-05

 157	1.570000000000001e+00
	-1.004766876895457e-16
	-5.701744994268016e-19
	-2.058516020171778e-15
	4.934576973672268e-06
	1.002541614343174e-04
	3.822859899758590e-05

 158	1.580000000000001e+00
	-9.938437985158139e-17
	-7.392260110459912e-19
	-2.060971764063611e-15
	5.113612497136028e-06
	1.012196011926124e-04
	3.923594375755679e-05

 159	1.590000000000001e+00
	-9.829955993396142e-17
	-9.159887084817965e-19
	-2.063378278406255e-15
	5.298612241601501e-06
	1.021670153726624e-04
	4.025285217057198e-05

 160	1.600000000000001e+00
	-9.722178691979961e-17
	-1.100834278057492e-18
	-2.065737872961153e-15
	5.489844026212720e-06
	1.030961433484217e-04
	4.127914268880104e-05

 161	1.610000000000001e+00
	-9.615064610475126e-17
	-1.294155189753451e-18
	-2.068052695838630e-15
	5.687594625554280e-06
	1.040067117847743e-04
	4.231463109587944e-05

 162	1.620000000000001e+00
	-9.508574711014347e-17
	-1.496365866625499e-18
	-2.070324743265287e-15
	5.892171498309299e-06
	1.048984334534263e-04
	4.335913037399876e-05

 163	1.630000000000001e+00
	-9.402672203185865e-17
	-1.707903925233546e-18
	-2.072555868651417e-15
	6.103904682808421e-06
	1.057710059218762e-04
	4.441245055852563e-05

 164	1.640000000000001e+00
	-9.297322371586719e-17
	-1.929231490774808e-18
	-2.074747790996287e-15
	6.323148870935007e-06
	1.066241101113256e-04
	4.547439857885774e-05

 165	1.650000000000001e+00
	-9.192492415181599e-17
	-2.160836590748926e-18
	-2.076902102667246e-15
	6.550285670581745e-06
	1.074574087207733e-04
	4.654477808419035e-05

 166	1.660000000000001e+00
	-9.088151297658335e-17
	-2.403234631102003e-18
	-2.079020276586805e-15
	6.785726064655530e-06
	1.082705445167040e-04
	4.762338925285282e-05

 167	1.670000000000001e+00
	-8.984269608022057e-17
	-2.656969958907222e-18
	-2.081103672859861e-15
	7.029913071194796e-06
	1.090631384909820e-04
	4.871002858387776e-05

 168	1.680000000000001e+00
	-8.880819430715124e-17
	-2.922617515731692e-18
	-2.083153544871493e-15
	7.283324604125692e-06
	1.098347878940678e-04
	4.980448866951764e-05

 169	1.690000000000001e+00
	-8.777774224598721e-17
	-3.200784585910834e-18
	-2.085171044883812e-15
	7.546476527088427e-06
	1.105850641568245e-04
	5.090655794752384e-05

 170	1.700000000000001e+00
	-8.675108710174424e-17
	-3.492112643999040e-18
	-2.087157229158670e-15
	7.819925883083020e-06
	1.113135107223503e-04
	5.201602043216990e-05

 171	1.710000000000001e+00
	-8.572798764467027e-17
	-3.797279305679248e-18
	-2.089113062631279e-15
	8.104274269816465e-06
	1.120196408198977e-04
	5.313265542327332e-05

 172	1.720000000000001e+00
	-8.470821323032474e-17
	-4.117000386392839e-18
	-2.091039423158100e-15
	8.400171313917143e-06
	1.127029352264525e-04
	5.425623719284938e-05

 173	1.730000000000001e+00
	-8.369154288590691e-17
	-4.452032071880067e-18
	-2.092937105360846e-15
	8.708318175943582e-06
	1.133628400783978e-04
	5.538653464957237e-05

 174	1.740000000000001e+00
	-8.267776445824780e-17
	-4.803173204702465e-18
	-2.094806824086898e-15
	9.029470991713590e-06
	1.139987648162557e-04
	5.652331098193898e-05

 175	1.750000000000001e+00
	-8.166667381919968e-17
	-5.171267690628596e-18
	-2.096649217505011e-15
	9.364444123421525e-06
	1.146100803700058e-04
	5.766632328198214e-05

 176	1.760000000000001e+00