Title: **.subckt gm_id_pmos
Date: Wed Jun  2 14:59:45  2021
Plotname: DC transfer characteristic
Flags: real
No. Variables: 7
No. Points: 181
Variables:
	0	v(v-sweep)	voltage
	1	@m.xm1.msky130_fd_pr__pfet_01v8[cgb]	capacitance
	2	@m.xm1.msky130_fd_pr__pfet_01v8[cgd]	capacitance
	3	@m.xm1.msky130_fd_pr__pfet_01v8[cgs]	capacitance
	4	@m.xm1.msky130_fd_pr__pfet_01v8[gds]	admittance
	5	@m.xm1.msky130_fd_pr__pfet_01v8[gm]	admittance
	6	i(@m.xm1.msky130_fd_pr__pfet_01v8[id])	current
Values:
 0	0.000000000000000e+00
	-1.070371216892622e-15
	6.559935974345097e-21
	-5.671460620577631e-18
	1.622079268532961e-17
	2.066299397557738e-15
	6.978685099497756e-17

 1	1.000000000000000e-02
	-1.057876601376023e-15
	7.081167234788603e-21
	-5.987920283641747e-18
	2.181014886367414e-17
	2.778278192914872e-15
	9.383434256603032e-17

 2	2.000000000000000e-02
	-1.045776634322995e-15
	7.640968856149171e-21
	-6.329151288439024e-18
	2.932534244672526e-17
	3.735557857721450e-15
	1.261677039779419e-16

 3	3.000000000000000e-02
	-1.034051403877466e-15
	8.242184458650500e-21
	-6.696886592504333e-18
	3.942985019470756e-17
	5.022639676678746e-15
	1.696416402059444e-16

 4	4.000000000000000e-02
	-1.022682154694258e-15
	8.887893319819151e-21
	-7.093004214987882e-18
	5.301568131387151e-17
	6.753126576796636e-15
	2.280942127812605e-16

 5	5.000000000000000e-02
	-1.011651205551961e-15
	9.581433495617802e-21
	-7.519541024906090e-18
	7.128207003340104e-17
	9.079741404796861e-15
	3.066854825297484e-16

 6	6.000000000000000e-02
	-1.000941871568342e-15
	1.032642702440985e-20
	-7.978707765164963e-18
	9.584125128506592e-17
	1.220779170605797e-14
	4.123527202809031e-16

 7	7.000000000000001e-02
	-9.905383909115193e-16
	1.112680728717284e-20
	-8.472905351837868e-18
	1.288606327885594e-16
	1.641326538867777e-14
	5.544222817143590e-16

 8	8.000000000000000e-02
	-9.804258558463485e-16
	1.198684858514456e-20
	-9.004742480518175e-18
	1.732538752004129e-16
	2.206714794978080e-14
	7.454320183661001e-16

 9	9.000000000000000e-02
	-9.705901479203532e-16
	1.291119798381830e-20
	-9.577054563942923e-18
	2.329376862315866e-16
	2.966809720366031e-14
	1.002236596224480e-15

 10	9.999999999999999e-02
	-9.610178770724571e-16
	1.390490946045960e-20
	-1.019292401787758e-17
	3.131768992058402e-16
	3.988634301182129e-14
	1.347492932261488e-15

 11	1.100000000000000e-01
	-9.516963244371366e-16
	1.497348038158430e-20
	-1.085570190573977e-17
	4.210481422531384e-16
	5.362266063905336e-14
	1.811656299749992e-15

 12	1.200000000000000e-01
	-9.426133886135085e-16
	1.612289032761254e-20
	-1.156903094690237e-17
	5.660627824914673e-16
	7.208758167808099e-14
	2.435662395481359e-15

 13	1.300000000000000e-01
	-9.337575351709401e-16
	1.735964227455095e-20
	-1.233686988925940e-17
	7.610037477239211e-16
	9.690776898819863e-14
	3.274530686207529e-15

 14	1.400000000000000e-01
	-9.251177491690083e-16
	1.869080613737810e-20
	-1.316351924370126e-17
	1.023049485015792e-15
	1.302688424271945e-13
	4.402204842848638e-15

 15	1.500000000000000e-01
	-9.166834904775343e-16
	2.012406467695050e-20
	-1.405364837659864e-17
	1.375283313713271e-15
	1.751071011735595e-13
	5.918053969983858e-15

 16	1.600000000000000e-01
	-9.084446516924444e-16
	2.166776177175832e-20
	-1.501232395635950e-17
	1.848719904941485e-15
	2.353668131067927e-13
	7.955602898552036e-15

 17	1.700000000000000e-01
	-9.003915184537026e-16
	2.333095305765100e-20
	-1.604503975147829e-17
	2.485025415417498e-15
	3.163453866171256e-13
	1.069425337954653e-14

 18	1.800000000000000e-01
	-8.925147319822768e-16
	2.512345894237564e-20
	-1.715774778003248e-17
	3.340167703345934e-15
	4.251562751048106e-13
	1.437501703733424e-14

 19	1.900000000000000e-01
	-8.848052536639466e-16
	2.705592000705916e-20
	-1.835689081408871e-17
	4.489313079285774e-15
	5.713495101418644e-13
	1.932162727336346e-14

 20	2.000000000000000e-01
	-8.772543315183168e-16
	2.913985481289000e-20
	-1.964943624650104e-17
	6.033392845787735e-15
	7.677431339445665e-13
	2.596885996703456e-14

 21	2.100000000000000e-01
	-8.698534684016522e-16
	3.138772013741451e-20
	-2.104291133164140e-17
	8.107905242115912e-15
	1.031536579790467e-12
	3.490051021663136e-14

 22	2.200000000000001e-01
	-8.625943918022337e-16
	3.381297366994393e-20
	-2.254543981504562e-17
	1.089470791087933e-14
	1.385800635634602e-12
	4.690029525899661e-14

 23	2.300000000000001e-01
	-8.554690250966728e-16
	3.643013919825196e-20
	-2.416577996898271e-17
	1.463780783015815e-14
	1.861469849871912e-12
	6.302004891050749e-14

 24	2.400000000000001e-01
	-8.484694601456916e-16
	3.925487431749395e-20
	-2.591336405069883e-17
	1.966448967440515e-14
	2.500004465630401e-12
	8.467102811595264e-14

 25	2.500000000000001e-01
	-8.415879311177368e-16
	4.230404068523224e-20
	-2.779833919641380e-17
	2.641356561221361e-14
	3.356943241014263e-12
	1.137460820697642e-13

 26	2.600000000000001e-01
	-8.348167894395710e-16
	4.559577683164332e-20
	-2.983160975597676e-17
	3.547311302856082e-14
	4.506639699771204e-12
	1.527829879106896e-13

 27	2.700000000000001e-01
	-8.281484797842259e-16
	4.914957350913188e-20
	-3.202488105905236e-17
	4.763083448579355e-14
	6.048567341685331e-12
	2.051826268740626e-13

 28	2.800000000000001e-01
	-8.215755170192245e-16
	5.298635152830929e-20
	-3.439070458248750e-17
	6.394118103162214e-14
	8.115700196363975e-12
	2.755001082400807e-13

 29	2.900000000000001e-01
	-8.150904640517802e-16
	5.712854197512141e-20
	-3.694252445868612e-17
	8.581469456656691e-14
	1.088563125827372e-11
	3.698327601296596e-13

 30	3.000000000000001e-01
	-8.086859105233039e-16
	6.160016863430420e-20
	-3.969472522495591e-17
	1.151367330285645e-13
	1.459529169164101e-11
	4.963364924023388e-13

 31	3.100000000000001e-01
	-8.023544523231256e-16
	6.642693235477535e-20
	-4.266268066250452e-17
	1.544249484626842e-13
	1.956038859158041e-11
	6.659118901711305e-13

 32	3.200000000000001e-01
	-7.960886719112304e-16
	7.163629698066208e-20
	-4.586280350973654e-17
	2.070377183040163e-13
	2.620100009502269e-11
	8.931141191972933e-13

 33	3.300000000000001e-01
	-7.898811194621575e-16
	7.725757633510589e-20
	-4.931259575649496e-17
	2.774493310901994e-13
	3.507516590444471e-11
	1.197357038491712e-12

 34	3.400000000000001e-01
	-7.837242948673334e-16
	8.332202158080552e-20
	-5.303069913284067e-17
	3.716122641830828e-13
	4.692280033190022e-11
	1.604502662185339e-12

 35	3.500000000000001e-01
	-7.776106306609570e-16
	8.986290808962004e-20
	-5.703694529696826e-17
	4.974325384108386e-13
	6.272284254184071e-11
	2.148953237222536e-12

 36	3.600000000000002e-01
	-7.715324759653536e-16
	9.691562073203208e-20
	-6.135240510115777e-17
	6.653910638906001e-13
	8.376724735936720e-11
	2.876395710800351e-12

 37	3.700000000000002e-01
	-7.654820815854326e-16
	1.045177362447758e-19
	-6.599943617180494e-17
	8.893522433937774e-13
	1.117562011705696e-10
	3.847388231678309e-12

 38	3.800000000000002e-01
	-7.594515864183233e-16
	1.127091010507655e-19
	-7.100172787928625e-17
	1.187610944080340e-12
	1.489197940523596e-10
	5.142026371044741e-12

 39	3.900000000000002e-01
	-7.534330053836342e-16
	1.215319025895593e-19
	-7.638434259577627e-17
	1.584240223907972e-12
	1.981722365584697e-10
	6.865983369736782e-12

 40	4.000000000000002e-01
	-7.474182191214259e-16
	1.310307318693363e-19
	-8.217375194454926e-17
	2.110814631517660e-12
	2.633054837548202e-10
	9.158283594640333e-12

 41	4.100000000000002e-01
	-7.413989657489510e-16
	1.412526345742275e-19
	-8.839786653370673e-17
	2.808596898043430e-12
	3.492296754268217e-10
	1.220124001025337e-11

 42	4.200000000000002e-01
	-7.353668350128963e-16
	1.522471476560929e-19
	-9.508605744213661e-17
	3.731288383325570e-12
	4.622679146999030e-10
	1.623306159053131e-11

 43	4.300000000000002e-01
	-7.293132652204981e-16
	1.640663179112032e-19
	-1.022691674880910e-16
	4.948454160092600e-12
	6.105123200883161e-10
	2.156370959229092e-11

 44	4.400000000000002e-01
	-7.232295433800636e-16
	1.767646985955167e-19
	-1.099795100644460e-16
	6.549739938138858e-12
	8.042466824818539e-10
	2.859464392931343e-11

 45	4.500000000000002e-01
	-7.171068090275847e-16
	1.903993196739442e-19
	-1.182508530733431e-16
	8.649997389615944e-12
	1.056438116297476e-09
	3.784314072800158e-11

 46	4.600000000000002e-01
	-7.109360622596363e-16
	2.050296268456993e-19
	-1.271183852461851e-16
	1.139542372872159e-11
	1.383295565455431e-09
	4.997186478077507e-11

 47	4.700000000000003e-01
	-7.047081765343783e-16
	2.207173840315324e-19
	-1.366186618876073e-16
	1.497079767093881e-11
	1.804886868142900e-09
	6.582432971614240e-11

 48	4.800000000000003e-01
	-6.984139168337356e-16
	2.375265336150357e-19
	-1.467895268731198e-16
	1.960785524206598e-11
	2.345798644715212e-09
	8.646675934431168e-11

 49	4.900000000000003e-01
	-6.920439638073089e-16
	2.555230083521911e-19
	-1.576700075302906e-16
	2.559479569317051e-11
	3.035815482573947e-09
	1.132366670280624e-10

 50	5.000000000000002e-01
	-6.855889445336127e-16
	2.747744885844054e-19
	-1.693001617679075e-16
	3.328684417248635e-11
	3.910588361332784e-09
	1.477982003623049e-10

 51	5.100000000000002e-01
	-6.790394719087462e-16
	2.953500937803277e-19
	-1.817206430874091e-16
	4.311773080922168e-11
	5.012257962175587e-09
	1.922039705742311e-10

 52	5.200000000000002e-01
	-6.723861889419142e-16
	3.173200149454595e-19
	-1.949733800761603e-16
	5.561190255411237e-11
	6.390012511264433e-09
	2.489628068146144e-10

 53	5.300000000000002e-01
	-6.656198221001163e-16
	3.407550721552473e-19
	-2.091004147270725e-16
	7.139726091257064e-11
	8.100551451786243e-09
	3.211126230764275e-10

 54	5.400000000000003e-01
	-6.587312455723349e-16
	3.657261854308512e-19
	-2.241439165801392e-16
	9.121825453438094e-11
	1.020847857485697e-08
	4.122975445569667e-10

 55	5.500000000000003e-01
	-6.517115536926056e-16
	3.923037635351031e-19
	-2.401458421262532e-16
	1.159492768923334e-10
	1.278666717663911e-08
	5.268487679426938e-10

 56	5.600000000000003e-01
	-6.445521428500145e-16
	4.205570032870767e-19
	-2.571475448357331e-16
	1.466085070414806e-10
	1.591669090087957e-08
	6.698693049874178e-10

 57	5.700000000000003e-01
	-6.372448029121159e-16
	4.505530966471435e-19
	-2.751893344709914e-16
	1.843725974967160e-10
	1.968945838270403e-08
	8.473239209498404e-10

 58	5.800000000000003e-01
	-6.297818179465846e-16
	4.823563446978173e-19
	-2.943099854107388e-16
	2.305929214609088e-10
	2.420622696788015e-08
	1.066137157220277e-09

 59	5.900000000000003e-01
	-6.221560757352629e-16
	5.160271799839128e-19
	-3.145461950370381e-16
	2.868143996396111e-10
	2.958019098263522e-08
	1.334304198249595e-09

 60	6.000000000000003e-01
	-6.143611852358965e-16
	5.516211014955460e-19
	-3.359319948240979e-16
	3.547981862515104e-10
	3.593883821526165e-08
	1.661021307502004e-09

 61	6.100000000000003e-01
	-6.063916007628740e-16
	5.891875298701816e-19
	-3.584981186116682e-16
	4.365496654241672e-10
	4.342724568650551e-08
	2.056844395713376e-09

 62	6.200000000000003e-01
	-5.982427512364862e-16
	6.287685941200982e-19
	-3.822713346243369e-16
	5.343532760826217e-10
	5.221245071697683e-08
	2.533885825496440e-09

 63	6.300000000000003e-01
	-5.899111724014159e-16
	6.703978652846900e-19
	-4.072737500670406e-16
	6.508156574541516e-10
	6.248899919589055e-08
	3.106060738812611e-09

 64	6.400000000000003e-01
	-5.813946394553068e-16
	7.140990567508134e-19
	-4.335220995218769e-16
	7.889185254910725e-10
	7.448575444373699e-08
	3.789395101800813e-09

 65	6.500000000000004e-01
	-5.726922970775213e-16
	7.598847154192521e-19
	-4.610270308009890e-16
	9.520826033044026e-10
	8.847405840583723e-08
	4.602408511622431e-09

 66	6.600000000000004e-01
	-5.638047834314454e-16
	8.077549322192865e-19
	-4.897924042608964e-16
	1.144243884147143e-09
	1.047773767321328e-07
	5.566585900330377e-09

 67	6.700000000000004e-01
	-5.547343443595887e-16
	8.576961044415193e-19
	-5.198146237182435e-16
	1.369943535269218e-09
	1.237826276425899e-07
	6.706953907311051e-09

 68	6.800000000000004e-01
	-5.454849337300635e-16
	9.096797856950380e-19
	-5.510820188720707e-16
	1.634432862357856e-09
	1.459534821609249e-07
	8.052780118160130e-09

 69	6.900000000000004e-01
	-5.360622957576991e-16
	9.636616617020885e-19
	-5.835743003700454e-16
	1.943794928658370e-09
	1.718460173328644e-07
	9.638416714513922e-09

 70	7.000000000000004e-01
	-5.264740251428739e-16
	1.019580691324851e-18
	-6.172621091936012e-16
	2.305084618701692e-09
	2.021271897262081e-07
	1.150431433723847e-08

 71	7.100000000000004e-01
	-5.167296010717076e-16
	1.077358451900885e-18
	-6.521066817322123e-16
	2.726489093367586e-09
	2.375966581124879e-07
	1.369823697334498e-08

 72	7.200000000000004e-01
	-5.068403915207230e-16
	1.136898725921768e-18
	-6.880596506513615e-16
	3.217510623562968e-09
	2.792125040112763e-07
	1.627671410803479e-08

 73	7.300000000000004e-01
	-4.968196249152516e-16
	1.198087362175266e-18
	-7.250629993574251e-16
	3.789173619373156e-09
	3.281213547384591e-07
	1.930677171381299e-08

 74	7.400000000000004e-01
	-4.866823269989585e-16
	1.260792438640118e-18
	-7.630491845091549e-16
	4.454257175046155e-09
	3.856932769002751e-07
	2.286798810290507e-08

 75	7.500000000000004e-01
	-4.764452217626798e-16
	1.324864746750546e-18
	-8.019414366710535e-16
	5.227553489553243e-09
	4.535615414666567e-07
	2.705492314084755e-08

 76	7.600000000000005e-01
	-4.661265964200946e-16
	1.390138607348003e-18
	-8.416542439756380e-16
	6.126150938483201e-09
	5.336669189684044e-07
	3.197996828453818e-08

 77	7.700000000000005e-01
	-4.557461316574474e-16
	1.456433018056047e-18
	-8.820940177588397e-16
	7.169738196204928e-09
	6.283054952111276e-07
	3.777665836080984e-08

 78	7.800000000000005e-01
	-4.453246996643429e-16
	1.523553120422711e-18
	-9.231599328235292e-16
	8.380922484184686e-09
	7.401780599395909e-07
	4.460347145453053e-08

 79	7.900000000000005e-01
	-4.348841337043961e-16
	1.591291963540706e-18
	-9.647449285885195e-16
	9.785550661881950e-09
	8.724378912827559e-07
	5.264811789316749e-08

 80	8.000000000000005e-01
	-4.244469741366150e-16
	1.659432529607674e-18
	-1.006736851243405e-15
	1.141301652531474e-08
	1.028732263056088e-06
	6.213228025687631e-08

 81	8.100000000000005e-01
	-4.140361967815660e-16
	1.727749976669954e-18
	-1.049019711507200e-15
	1.329653160742009e-08
	1.213231344333781e-06
	7.331671138969828e-08

 82	8.200000000000005e-01
	-4.036749302794224e-16
	1.796014045207723e-18
	-1.091475028009509e-15
	1.547333058358273e-08
	1.430636556183195e-06
	8.650652589054161e-08

 83	8.300000000000005e-01
	-3.933861695621368e-16
	1.863991568784539e-18
	-1.133983222954636e-15
	1.798477707839436e-08
	1.686159245799651e-06
	1.020564346750885e-07

 84	8.400000000000005e-01
	-3.831924927288387e-16
	1.931449025086061e-18
	-1.176425034794207e-15
	2.087633265456877e-08
	1.985460203483795e-06
	1.203755781829624e-07

 85	8.500000000000005e-01
	-3.731157884623671e-16
	1.998155062530942e-18
	-1.218682912231001e-15
	2.419735272463342e-08
	2.334541617857053e-06
	1.419315230180968e-07

 86	8.600000000000005e-01
	-3.631770006664871e-16
	2.063882939291429e-18
	-1.260642355015085e-15
	2.800067970374975e-08
	2.739586016344551e-06
	1.672529158038392e-07

 87	8.700000000000006e-01
	-3.533958962689793e-16
	2.128412815867233e-18
	-1.302193169579519e-15
	3.234201702445039e-08
	3.206741807973240e-06
	1.969302570944150e-07

 88	8.800000000000006e-01
	-3.437908611732401e-16
	2.191533849003394e-18
	-1.343230611414167e-15
	3.727908763622310e-08
	3.741862027154381e-06
	2.316142879083438e-07

 89	8.900000000000006e-01
	-3.343787282108794e-16
	2.253046043284256e-18
	-1.383656390936555e-15
	4.287060565233772e-08
	4.350210970840094e-06
	2.720115874797635e-07

 90	9.000000000000006e-01
	-3.251746397177490e-16
	2.312761826628696e-18
	-1.423379525181760e-15
	4.917511642416858e-08
	5.036161234372718e-06
	3.188771677557899e-07

 91	9.100000000000006e-01
	-3.161919460954799e-16
	2.370507326566162e-18
	-1.462317023570585e-15
	5.624978367667387e-08
	5.802909417354625e-06
	3.730041065204086e-07

 92	9.200000000000006e-01
	-3.074421404958177e-16
	2.426123334996569e-18
	-1.500394401999252e-15
	6.414921723839415e-08
	6.652240788574441e-06
	4.352105575426065e-07

 93	9.300000000000006e-01
	-2.989348286338182e-16
	2.479465959580115e-18
	-1.537546025224529e-15
	7.292443725104201e-08
	7.584370376753232e-06
	5.063247691587417e-07

 94	9.400000000000006e-01
	-2.906777317449032e-16
	2.530406969491191e-18
	-1.573715282739132e-15
	8.262205891395524e-08
	8.597880262301553e-06
	5.871689826511737e-07

 95	9.500000000000006e-01
	-2.826767198830641e-16
	2.578833851632975e-18
	-1.608854607845930e-15
	9.328375736983967e-08
	9.689761471689035e-06
	6.785432249477850e-07

 96	9.600000000000006e-01
	-2.749358721324557e-16
	2.624649600287347e-18
	-1.642925353311753e-15
	1.049460397694834e-07
	1.085555597438313e-05
	7.812100298916182e-07

 97	9.700000000000006e-01
	-2.674575598781226e-16
	2.667772268427826e-18
	-1.675897539743385e-15
	1.176403170842479e-07
	1.208958238406624e-05
	8.958810159770471e-07

 98	9.800000000000006e-01
	-2.602425490475005e-16
	2.708134312520035e-18
	-1.707749494670818e-15
	1.313932380811922e-07
	1.338522026888542e-05
	1.023206037598831e-06

 99	9.900000000000007e-01
	-2.532901171771107e-16
	2.745681764637253e-18
	-1.738467401288203e-15
	1.462272266554205e-07
	1.473522377793108e-05
	1.163765350922250e-06

 100	1.000000000000001e+00
	-2.465981812554931e-16
	2.780373266267721e-18
	-1.768044775974706e-15
	1.621611535285735e-07
	1.613203575912478e-05
	1.318064941221659e-06

 101	1.010000000000001e+00
	-2.401634325168782e-16
	2.812178997477405e-18
	-1.796481893206158e-15
	1.792110737032585e-07
	1.756807784699352e-05
	1.486534889145817e-06

 102	1.020000000000001e+00
	-2.339814746808959e-16
	2.841079533343464e-18
	-1.823785175403172e-15
	1.973909696375570e-07
	1.903599870276329e-05
	1.669530440342218e-06

 103	1.030000000000001e+00
	-2.280469625228635e-16
	2.867064657027785e-18
	-1.849966563774825e-15
	2.167134535915956e-07
	2.052887012152374e-05
	1.867335302282774e-06

 104	1.040000000000001e+00
	-2.223537380894967e-16
	2.890132155752109e-18
	-1.875042884440345e-15
	2.371903977629637e-07
	2.204032775324932e-05
	2.080166625302672e-06

 105	1.050000000000001e+00
	-2.168949623221325e-16
	2.910286622485261e-18
	-1.899035222164564e-15
	2.588334751203841e-07
	2.356465884118180e-05
	2.308181121998124e-06

 106	1.060000000000001e+00
	-2.116632402933539e-16
	2.927538282552094e-18
	-1.921968312031581e-15
	2.816546056734841e-07
	2.509684327700429e-05
	2.551481824158020e-06

 107	1.070000000000001e+00
	-2.066507386870327e-16
	2.941901860785336e-18
	-1.943869957393018e-15
	3.056663116081810e-07
	2.663255642440383e-05
	2.810125051528973e-06

 108	1.080000000000001e+00
	-2.018492945442199e-16
	2.953395501395388e-18
	-1.964770480531550e-15
	3.308819903000158e-07
	2.816814284782599e-05
	3.084127255724004e-06

 109	1.090000000000001e+00
	-1.972505146497376e-16
	2.962039749525431e-18
	-1.984702210728072e-15
	3.573161171475033e-07
	2.970056969577344e-05
	3.373471492738461e-06

 110	1.100000000000001e+00
	-1.928458652420714e-16
	2.967856600556988e-18
	-2.003699012846036e-15
	3.849843910840900e-07
	3.122736743013209e-05
	3.678113360144942e-06

 111	1.110000000000001e+00
	-1.886267519903133e-16
	2.970868620673177e-18
	-2.021795858168759e-15
	4.139038351804483e-07
	3.274656420824112e-05
	3.997986305182132e-06

 112	1.120000000000001e+00
	-1.845845903969318e-16
	2.971098139990749e-18
	-2.039028438051765e-15
	4.440928634975865e-07
	3.425661876900562e-05
	4.333006265717690e-06

 113	1.130000000000001e+00
	-1.807108669562547e-16
	2.968566517735839e-18
	-2.055432819980373e-15
	4.755713237236139e-07
	3.575635531568236e-05
	4.683075647656049e-06

 114	1.140000000000001e+00
	-1.769971915291777e-16
	2.963293477447085e-18
	-2.071045144842466e-15
	5.083605234178989e-07
	3.724490271799498e-05
	5.048086671258681e-06

 115	1.150000000000001e+00
	-1.734353414890376e-16
	2.955296509018798e-18
	-2.085901363622787e-15
	5.424832460776582e-07
	3.872163941068996e-05
	5.427924137150928e-06

 116	1.160000000000001e+00
	-1.700172982563737e-16
	2.944590333514359e-18
	-2.100037011280116e-15
	5.779637618299012e-07
	4.018614464304504e-05
	5.822467672768842e-06

 117	1.170000000000001e+00
	-1.667352768762328e-16
	2.931186426051173e-18
	-2.113487015262247e-15
	6.148278363727722e-07
	4.163815621125697e-05
	6.231593523778260e-06

 118	1.180000000000001e+00
	-1.635817493054015e-16
	2.915092591648083e-18
	-2.126285535925430e-15
	6.531027408438112e-07
	4.307753445029161e-05
	6.655175954413372e-06

 119	1.190000000000001e+00
	-1.605494620726677e-16
	2.896312588697964e-18
	-2.138465836035557e-15
	6.928172645581765e-07
	4.450423203881039e-05
	7.093088317238541e-06

 120	1.200000000000001e+00
	-1.576314482956635e-16
	2.874845803840208e-18
	-2.150060179506756e-15
	7.340017404090464e-07
	4.591826941777072e-05
	7.545203967039090e-06

 121	1.210000000000001e+00
	-1.548210386664273e-16
	2.850686917800805e-18
	-2.161099738513365e-15
	7.766880336201812e-07
	4.731971297501263e-05
	8.011396354663562e-06

 122	1.220000000000001e+00
	-1.521118619246471e-16
	2.823825694408000e-18
	-2.171614551919778e-15
	8.209096199871325e-07
	4.870866095453698e-05
	8.491540121167771e-06

 123	1.230000000000001e+00
	-1.494978488696173e-16
	2.794246704666332e-18
	-2.181633471105871e-15
	8.667015872785322e-07
	5.008522903468080e-05
	8.985510868450197e-06

 124	1.240000000000001e+00
	-1.469732301964925e-16
	2.761929118275051e-18
	-2.191184137275982e-15
	9.141006849956805e-07
	5.144954064127008e-05
	9.493185401530534e-06

 125	1.250000000000001e+00
	-1.445325327211993e-16
	2.726846503219161e-18
	-2.200292969289298e-15
	9.631453730102735e-07
	5.280171925679017e-05
	1.001444176576963e-05

 126	1.260000000000001e+00
	-1.421705737077792e-16
	2.688966638333128e-18
	-2.208985163152189e-15
	1.013875877645587e-06
	5.414188267365575e-05
	1.054915921723591e-05

 127	1.270000000000001e+00
	-1.398824536592246e-16
	2.648251334893434e-18
	-2.217284701341967e-15
	1.066334255489428e-06
	5.547013882250684e-05
	1.109721814376640e-05

 128	1.280000000000001e+00
	-1.376635478911556e-16
	2.604656263585111e-18
	-2.225214370314330e-15
	1.120564465249993e-06
	5.678658286166295e-05
	1.165849995085740e-05

 129	1.290000000000001e+00
	-1.355094971683165e-16
	2.558130783464932e-18
	-2.232795784723251e-15
	1.176612448006127e-06
	5.809129526396709e-05
	1.223288692363874e-05

 130	1.300000000000001e+00
	-1.334161976473679e-16
	2.508617769804956e-18
	-2.240049417049720e-15
	1.234526216257348e-06
	5.938434068164508e-05
	1.282026207377445e-05

 131	1.310000000000001e+00
	-1.313797903358897e-16
	2.456053437940776e-18
	-2.246994631492650e-15
	1.294355952243877e-06
	6.066576740843923e-05
	1.342050897813443e-05

 132	1.320000000000001e+00
	-1.293966502469930e-16
	2.400367160467232e-18
	-2.253649721120942e-15
	1.356154116082673e-06
	6.193560729142476e-05
	1.403351161444809e-05

 133	1.330000000000001e+00
	-1.274633754014064e-16
	2.341481275319247e-18
	-2.260031947419130e-15
	1.419975564350084e-06
	6.319387597299302e-05
	1.465915419781666e-05

 134	1.340000000000001e+00
	-1.255767758043117e-16
	2.279310882445683e-18
	-2.266157581480436e-15
	1.485877679836508e-06
	6.444057336703705e-05
	1.529732102088785e-05

 135	1.350000000000001e+00
	-1.237338625023644e-16
	2.213763626930344e-18
	-2.272041946210622e-15
	1.553920513303381e-06
	6.567568429294343e-05
	1.594789629963855e-05

 136	1.360000000000001e+00
	-1.219318368070907e-16
	2.144739466537043e-18
	-2.277699459004093e-15
	1.624166938188837e-06
	6.689917920711631e-05
	1.661076402602985e-05

 137	1.370000000000001e+00
	-1.201680797540262e-16
	2.072130421754420e-18
	-2.283143674440958e-15
	1.696682819336860e-06
	6.811101498493545e-05
	1.728580782826343e-05

 138	1.380000000000001e+00
	-1.184401418523389e-16
	1.995820306494090e-18
	-2.288387326630902e-15
	1.771537196967544e-06
	6.931113571674306e-05
	1.797291083895521e-05

 139	1.390000000000001e+00
	-1.167457331670526e-16
	1.915684437651833e-18
	-2.293442370897397e-15
	1.848802487264122e-06
	7.049947349004546e-05
	1.867195557121929e-05

 140	1.400000000000001e+00
	-1.150827137651544e-16
	1.831589321777954e-18
	-2.298320024555035e-15
	1.928554701129242e-06
	7.167594913697391e-05
	1.938282380241572e-05

 141	1.410000000000001e+00
	-1.134490845477063e-16
	1.743392317120906e-18
	-2.303030806583956e-15
	2.010873682859441e-06
	7.284047293145833e-05
	2.010539646513179e-05

 142	1.420000000000001e+00
	-1.118429784822467e-16
	1.650941269308335e-18
	-2.307584576049795e-15
	2.095843370707306e-06
	7.399294522479377e-05
	2.083955354483601e-05

 143	1.430000000000001e+00
	-1.102626522433112e-16
	1.554074118913938e-18
	-2.311990569155415e-15
	2.183552081546283e-06
	7.513325701151689e-05
	2.158517398354352e-05

 144	1.440000000000001e+00
	-1.087064782634734e-16
	1.452618479125995e-18
	-2.316257434843112e-15
	2.274092822129518e-06
	7.626129041996537e-05
	2.234213558876816e-05

 145	1.450000000000001e+00
	-1.071729371928759e-16
	1.346391181688321e-18
	-2.320393268893344e-15
	2.367563629742549e-06
	7.737691912368320e-05
	2.311031494698661e-05

 146	1.460000000000001e+00
	-1.056606107616327e-16
	1.235197789223756e-18
	-2.324405646489001e-15
	2.464067945395939e-06
	7.848000867110140e-05
	2.388958734080984e-05

 147	1.470000000000001e+00
	-1.041681750366112e-16
	1.118832071978591e-18
	-2.328301653233328e-15
	2.563715023091145e-06
	7.957041673175795e-05
	2.467982666903461e-05

 148	1.480000000000001e+00
	-1.026943940618413e-16
	9.970754469405906e-19
	-2.332087914625487e-15
	2.666620379126535e-06
	8.064799325780447e-05
	2.548090536873482e-05

 149	1.490000000000001e+00
	-1.012381138700940e-16
	8.696963771886795e-19
	-2.335770624010466e-15
	2.772906285894015e-06
	8.171258055974640e-05
	2.629269433853933e-05

 150	1.500000000000001e+00
	-9.979825685188064e-17
	7.364497292243928e-19
	-2.339355569030505e-15
	2.882702315155826e-06
	8.276401329532850e-05
	2.711506286223439e-05

 151	1.510000000000001e+00
	-9.837381646723766e-17
	5.970760859190785e-19
	-2.342848156613294e-15
	2.996145936389350e-06
	8.380211837025317e-05
	2.794787853181482e-05

 152	1.520000000000001e+00
	-9.696385228509378e-17
	4.513010125841720e-19
	-2.346253436538545e-15
	3.113383176449459e-06
	8.482671474904015e-05
	2.879100716909427e-05

 153	1.530000000000001e+00
	-9.556748533466334e-17
	2.988342735365404e-19
	-2.349576123629318e-15
	3.234569347526108e-06
	8.583761317382984e-05
	2.964431274496645e-05

 154	1.540000000000001e+00
	-9.418389375326329e-17
	1.393689963866426e-19
	-2.352820618617796e-15
	3.359869851169764e-06
	8.683461578832134e-05
	3.050765729538199e-05

 155	1.550000000000001e+00
	-9.281230871496649e-17
	-2.741921887316972e-20
	-2.355991027737589e-15
	3.489461067018921e-06
	8.781751566334757e-05
	3.138090083307588e-05

 156	1.560000000000001e+00
	-9.145201062477781e-17
	-2.018732490632936e-19
	-2.359091181095891e-15
	3.623531335786578e-06
	8.878609621984260e-05
	3.226390125404283e-05

 157	1.570000000000001e+00
	-9.010232556330901e-17
	-3.843554585405105e-19
	-2.362124649879418e-15
	3.762282047035276e-06
	8.974013054416587e-05
	3.315651423770643e-05

 158	1.580000000000001e+00
	-8.876262196736487e-17
	-5.752487748688203e-19
	-2.365094762447995e-15
	3.905928843277807e-06
	9.067938058996380e-05
	3.405859313968025e-05

 159	1.590000000000001e+00
	-8.743230753232861e-17
	-7.749578330292415e-19
	-2.368004619369002e-15
	4.054702952952558e-06
	9.160359625998088e-05
	3.496998887595447e-05

 160	1.600000000000001e+00
	-8.611082632278640e-17
	-9.839101919384428e-19
	-2.370857107444867e-15
	4.208852665797919e-06
	9.251251436053290e-05
	3.589054979726786e-05

 161	1.610000000000001e+00
	-8.479765607837418e-17
	-1.202557627226724e-18
	-2.373654912784477e-15
	4.368644965031855e-06
	9.340585742080031e-05
	3.682012155235666e-05

 162	1.620000000000001e+00
	-8.349230570243615e-17
	-1.431377504403866e-18
	-2.376400532967726e-15
	4.534367331442686e-06
	9.428333236873723e-05
	3.775854693868672e-05

 163	1.630000000000001e+00
	-8.219431292169139e-17
	-1.670874236720527e-18
	-2.379096288350575e-15
	4.706329734903006e-06
	9.514462905534758e-05
	3.870566573919216e-05

 164	1.640000000000001e+00
	-8.090324210569892e-17
	-1.921580832206020e-18
	-2.381744332556103e-15
	4.884866828775140e-06
	9.598941861948363e-05
	3.966131454346715e-05

 165	1.650000000000001e+00
	-7.961868223553097e-17
	-2.184060534528841e-18
	-2.384346662194899e-15
	5.070340361975159e-06
	9.681735168633652e-05
	4.062532655177774e-05

 166	1.660000000000001e+00
	-7.834024501165854e-17
	-2.458908562483554e-18
	-2.386905125856096e-15
	5.263141821838156e-06
	9.762805639466030e-05
	4.159753136020696e-05

 167	1.670000000000001e+00
	-7.706756309162984e-17
	-2.746753953047588e-18
	-2.389421432408125e-15
	5.463695318031252e-06
	9.842113625075059e-05
	4.257775472520440e-05

 168	1.680000000000001e+00
	-7.580028844871895e-17
	-3.048261513076843e-18
	-2.391897158646198e-15
	5.672460713161580e-06
	9.919616781167205e-05
	4.356581830581988e-05

 169	1.690000000000001e+00
	-7.453809084326171e-17
	-3.364133884805891e-18
	-2.394333756321306e-15
	5.889936998881192e-06
	9.995269820658216e-05
	4.456153938194635e-05

 170	1.700000000000001e+00
	-7.328065639892822e-17
	-3.695113730388761e-18
	-2.396732558583515e-15
	6.116665906553257e-06
	1.006902425137782e-04
	4.556473054703896e-05

 171	1.710000000000001e+00
	-7.202768627673364e-17
	-4.041986040748487e-18
	-2.399094785870236e-15
	6.353235728141483e-06
	1.014082810228410e-04
	4.657519937399718e-05

 172	1.720000000000001e+00
	-7.077889544004963e-17
	-4.405580573991150e-18
	-2.401421551268196e-15
	6.600285305052963e-06
	1.021062564266486e-04
	4.759274805327553e-05

 173	1.730000000000001e+00
	-6.953401150439624e-17
	-4.786774428571713e-18
	-2.403713865375917e-15
	6.858508119253851e-06
	1.027835710077216e-04
	4.861717300282081e-05

 174	1.740000000000001e+00
	-6.829277366623033e-17
	-5.186494756270274e-18
	-2.405972640691748e-15
	7.128656391145416e-06
	1.034395839080219e-04
	4.964826445020664e-05

 175	1.750000000000001e+00
	-6.705493170541835e-17
	-5.605721619825870e-18
	-2.408198695550688e-15
	7.411545051580470e-06
	1.040736086014368e-04
	5.068580598836418e-05

 176	1.760000000000001e+00