Title: **.subckt gm_id_pmos
Date: Wed Jun  2 14:54:21  2021
Plotname: DC transfer characteristic
Flags: real
No. Variables: 7
No. Points: 181
Variables:
	0	v(v-sweep)	voltage
	1	@m.xm1.msky130_fd_pr__pfet_01v8[cgb]	capacitance
	2	@m.xm1.msky130_fd_pr__pfet_01v8[cgd]	capacitance
	3	@m.xm1.msky130_fd_pr__pfet_01v8[cgs]	capacitance
	4	@m.xm1.msky130_fd_pr__pfet_01v8[gds]	admittance
	5	@m.xm1.msky130_fd_pr__pfet_01v8[gm]	admittance
	6	i(@m.xm1.msky130_fd_pr__pfet_01v8[id])	current
Values:
 0	0.000000000000000e+00
	-5.329500465814102e-16
	1.537733212950072e-18
	-1.969227254464294e-17
	9.378420429425086e-11
	7.555153185627128e-10
	3.294890226714958e-11

 1	1.000000000000000e-02
	-5.312802835336909e-16
	1.647430280539873e-18
	-2.100680570544607e-17
	1.157679998816540e-10
	9.329747889716244e-10
	4.136360776217401e-11

 2	2.000000000000000e-02
	-5.296008106831105e-16
	1.764775189017479e-18
	-2.241130168144101e-17
	1.421904785280508e-10
	1.146395460017963e-09
	5.172820854146185e-11

 3	3.000000000000000e-02
	-5.279103381868272e-16
	1.890263011649293e-18
	-2.391144532754783e-17
	1.737474584557431e-10
	1.401457425859308e-09
	6.443025924120179e-11

 4	4.000000000000000e-02
	-5.262075268902351e-16
	2.024415336900043e-18
	-2.551321529787724e-17
	2.112018788895052e-10
	1.704400292989244e-09
	7.991689495060460e-11

 5	5.000000000000000e-02
	-5.244909880441044e-16
	2.167780964274612e-18
	-2.722289076014139e-17
	2.553870565191466e-10
	2.062051810746158e-09
	9.870055693061407e-11

 6	6.000000000000000e-02
	-5.227592833632538e-16
	2.320936501981450e-18
	-2.904705689857707e-17
	3.072123802790586e-10
	2.481875896230711e-09
	1.213650943553323e-10

 7	7.000000000000001e-02
	-5.210109254843214e-16
	2.484486843111307e-18
	-3.099260893881520e-17
	3.676725360486966e-10
	2.972048772028685e-09
	1.485724797097545e-10

 8	8.000000000000000e-02
	-5.192443788847745e-16
	2.659065494483297e-18
	-3.306675440072136e-17
	4.378612646983827e-10
	3.541571285378551e-09
	1.810704602871069e-10

 9	9.000000000000000e-02
	-5.174580613303633e-16
	2.845334729505647e-18
	-3.527701325489384e-17
	5.189904493637372e-10
	4.200423882098312e-09
	2.197015416198580e-10

 10	9.999999999999999e-02
	-5.156503459229310e-16
	3.043985533581976e-18
	-3.763121562844728e-17
	6.124150425284396e-10
	4.959768491039963e-09
	2.654137526553663e-10

 11	1.100000000000000e-01
	-5.138195638248744e-16
	3.255737307761537e-18
	-4.013749667575884e-17
	7.196640444011535e-10
	5.832199236728033e-09
	3.192736732183351e-10

 12	1.200000000000000e-01
	-5.119640077404165e-16
	3.481337293551122e-18
	-4.280428820090098e-17
	8.424775018245687e-10
	6.832041996120114e-09
	3.824822133885099e-10

 13	1.300000000000000e-01
	-5.100819362369879e-16
	3.721559679159082e-18
	-4.564030659139290e-17
	9.828493708024418e-10
	7.975701820157838e-09
	4.563936286992455e-10

 14	1.400000000000000e-01
	-5.081715789921507e-16
	3.977204345022809e-18
	-4.865453659882511e-17
	1.143076109606830e-09
	9.282057424690205e-09
	5.425382451566529e-10

 15	1.500000000000000e-01
	-5.062311430523790e-16
	4.249095204400078e-18
	-5.185621048219104e-17
	1.325811046582757e-09
	1.077290335044182e-08
	6.426493661384856e-10

 16	1.600000000000000e-01
	-5.042588201892583e-16
	4.538078093217215e-18
	-5.525478201592634e-17
	1.534124873947797e-09
	1.247344282092307e-08
	7.586948506262902e-10

 17	1.700000000000000e-01
	-5.022527954359741e-16
	4.845018162425224e-18
	-5.885989485852870e-17
	1.771573017437613e-09
	1.441283749101051e-08
	8.929138978583195e-10

 18	1.800000000000000e-01
	-5.002112568818628e-16
	5.170796725997417e-18
	-6.268134478122335e-17
	2.042271080964558e-09
	1.662482386079431e-08
	1.047859653096167e-09

 19	1.900000000000000e-01
	-4.981324067949464e-16
	5.516307518610960e-18
	-6.672903527164354e-17
	2.350980034370891e-09
	1.914840988554860e-08
	1.226448365650826e-09

 20	2.000000000000000e-01
	-4.960144741312545e-16
	5.882452319208318e-18
	-7.101292605734568e-17
	2.703203285864766e-09
	2.202866912597862e-08
	1.432015984653131e-09

 21	2.100000000000000e-01
	-4.938557284749850e-16
	6.270135900261684e-18
	-7.554297414062627e-17
	3.105298261616890e-09
	2.531765367581260e-08
	1.668383270847508e-09

 22	2.200000000000001e-01
	-4.916544954347063e-16
	6.680260267901879e-18
	-8.032906700210456e-17
	3.564605621695478e-09
	2.907545122253235e-08
	1.939930735377799e-09

 23	2.300000000000001e-01
	-4.894091734975276e-16
	7.113718165359057e-18
	-8.538094771839086e-17
	4.089599804104512e-09
	3.337141618059768e-08
	2.251684992503272e-09

 24	2.400000000000001e-01
	-4.871182523151271e-16
	7.571385821609980e-18
	-9.070813185104958e-17
	4.690065244887429e-09
	3.828561018563559e-08
	2.609418438546661e-09

 25	2.500000000000001e-01
	-4.847803323626095e-16
	8.054114938929718e-18
	-9.631981610195870e-17
	5.377303414553606e-09
	4.391049369277439e-08
	3.019764553463579e-09

 26	2.600000000000001e-01
	-4.823941458732630e-16
	8.562723927351506e-18
	-1.022247788954018e-16
	6.164376785348603e-09
	5.035291835121927e-08
	3.490351577109745e-09

 27	2.700000000000001e-01
	-4.799585789096413e-16
	9.097988410917536e-18
	-1.084312732402952e-16
	7.066397049303452e-09
	5.773647962709067e-08
	4.029957856267930e-09

 28	2.800000000000001e-01
	-4.774726943843366e-16
	9.660631050059107e-18
	-1.149469124465244e-16
	8.100866396872962e-09
	6.620430124900242e-08
	4.648692811621120e-09

 29	2.900000000000001e-01
	-4.749357557930779e-16
	1.025131074634832e-17
	-1.217785495156107e-16
	9.288082498657244e-09
	7.592233792940713e-08
	5.358208261469053e-09

 30	3.000000000000001e-01
	-4.723472513693331e-16
	1.087061131997416e-17
	-1.289321512947733e-16
	1.065162007213686e-08
	8.708330098948190e-08
	6.171945791415061e-09

 31	3.100000000000001e-01
	-4.697069183147883e-16
	1.151902977620388e-17
	-1.364126687699006e-16
	1.221890463032054e-08
	9.991133354694604e-08
	7.105427012226108e-09

 32	3.200000000000001e-01
	-4.670147667056122e-16
	1.219696430422669e-17
	-1.442239051702385e-16
	1.402189727065818e-08
	1.146675883948388e-07
	8.176594943067482e-09

 33	3.300000000000001e-01
	-4.642711026223572e-16
	1.290470217938376e-17
	-1.523683838570081e-16
	1.609791323782207e-08
	1.316568931582082e-07
	9.406216441514530e-09

 34	3.400000000000001e-01
	-4.614765500040669e-16
	1.364240776693454e-17
	-1.608472182589286e-16
	1.849060153646056e-08
	1.512357242097024e-07
	1.081835762741436e-08

 35	3.500000000000001e-01
	-4.586320706873755e-16
	1.441011085107777e-17
	-1.696599863872094e-16
	2.125111810279493e-08
	1.738217533579937e-07
	1.244094667045071e-08

 36	3.600000000000002e-01
	-4.557389820618661e-16
	1.520769553568272e-17
	-1.788046126969182e-16
	2.443953093431350e-08
	1.999052792553937e-07
	1.430644118682250e-08

 37	3.700000000000002e-01
	-4.527989717566839e-16
	1.603488998172011e-17
	-1.882772602456116e-16
	2.812650199967923e-08
	2.300629078249941e-07
	1.645262086865753e-08

 38	3.800000000000002e-01
	-4.498141087731565e-16
	1.689125725928408e-17
	-1.980722362181384e-16
	3.239529743698576e-08
	2.649739006513469e-07
	1.892352988535885e-08

 39	3.900000000000002e-01
	-4.467868504965134e-16
	1.777618759796790e-17
	-2.081819139235624e-16
	3.734418401476748e-08
	3.054396633681030e-07
	2.177059805442517e-08

 40	4.000000000000002e-01
	-4.437200450587997e-16
	1.868889231688012e-17
	-2.185966743123019e-16
	4.308927529056640e-08
	3.524068913326093e-07
	2.505397473579545e-08

 41	4.100000000000002e-01
	-4.406169285860813e-16
	1.962839970367614e-17
	-2.293048698977773e-16
	4.976789415860944e-08
	4.069949177123704e-07
	2.884411473537181e-08

 42	4.200000000000002e-01
	-4.374811169465992e-16
	2.059355308981280e-17
	-2.402928136890897e-16
	5.754251779960672e-08
	4.705278056316637e-07
	3.322366097034938e-08

 43	4.300000000000002e-01
	-4.343165917219918e-16
	2.158301133642521e-17
	-2.515447953466864e-16
	6.660536404642669e-08
	5.445716720698886e-07
	3.828967384719442e-08

 44	4.400000000000002e-01
	-4.311276802493451e-16
	2.259525190185128e-17
	-2.630431262638383e-16
	7.718366173049230e-08
	6.309776015746650e-07
	4.415626160694633e-08

 45	4.500000000000002e-01
	-4.279190297245910e-16
	2.362857660852607e-17
	-2.747682146616731e-16
	8.954561779243977e-08
	7.319302712202912e-07
	5.095766839349780e-08

 46	4.600000000000002e-01
	-4.246955755133649e-16
	2.468112016497112e-17
	-2.866986710796414e-16
	1.040070463316488e-07
	8.500020282196144e-07
	5.885187624996975e-08

 47	4.700000000000003e-01
	-4.214625039784776e-16
	2.575086142971074e-17
	-2.988114438679185e-16
	1.209385546152367e-07
	9.882115998151391e-07
	6.802477202012441e-08

 48	4.800000000000003e-01
	-4.182252102972820e-16
	2.683563733051230e-17
	-3.110819834705587e-16
	1.407730841825460e-07
	1.150085837162081e-06
	7.869491822972615e-08

 49	4.900000000000003e-01
	-4.149892519005223e-16
	2.793315927716586e-17
	-3.234844334599628e-16
	1.640134791382862e-07
	1.339721880265415e-06
	9.111894616585343e-08

 50	5.000000000000002e-01
	-4.117602983095392e-16
	2.904103183218477e-17
	-3.359918454791064e-16
	1.912395996089369e-07
	1.561845886820040e-06
	1.055975571987708e-07

 51	5.100000000000002e-01
	-4.085440782740070e-16
	3.015677333458064e-17
	-3.485764145038818e-16
	2.231143229448115e-07
	1.821863046723206e-06
	1.224820728230031e-07

 52	5.200000000000002e-01
	-4.053463252113536e-16
	3.127783811042117e-17
	-3.612097301886093e-16
	2.603875934793931e-07
	2.125892123467490e-06
	1.421814136884757e-07

 53	5.300000000000002e-01
	-4.021727220164908e-16
	3.240163985315336e-17
	-3.738630395345287e-16
	3.038975184332457e-07
	2.480776421497869e-06
	1.651693133722663e-07

 54	5.400000000000003e-01
	-3.990288463425813e-16
	3.352557571915022e-17
	-3.865075157500466e-16
	3.545673983776983e-07
	2.894062158328091e-06
	1.919914865395986e-07

 55	5.500000000000003e-01
	-3.959201174484096e-16
	3.464705066146026e-17
	-3.991145279711165e-16
	4.133975696039938e-07
	3.373935075092625e-06
	2.232723793998301e-07

 56	5.600000000000003e-01
	-3.928517456652951e-16
	3.576350151840193e-17
	-4.116559064904635e-16
	4.814510696063281e-07
	3.929107127252524e-06
	2.597210426285196e-07

 57	5.700000000000003e-01
	-3.898286854583034e-16
	3.687242038372888e-17
	-4.241041983062703e-16
	5.598324552589295e-07
	4.568647581525330e-06
	3.021355964355820e-07

 58	5.800000000000003e-01
	-3.868555929464066e-16
	3.797137681099935e-17
	-4.364329081356065e-16
	6.496596249371040e-07
	5.301756966141714e-06
	3.514057199620643e-07

 59	5.900000000000003e-01
	-3.839367886094783e-16
	3.905803844513756e-17
	-4.486167205280286e-16
	7.520292044226296e-07
	6.137487961336291e-06
	4.085126087375225e-07

 60	6.000000000000003e-01
	-3.810762257530648e-16
	4.013018972689944e-17
	-4.606316993356455e-16
	8.679768897344339e-07
	7.084423992399802e-06
	4.745259176234758e-07

 61	6.100000000000003e-01
	-3.782774651319720e-16
	4.118574837840300e-17
	-4.724554615168782e-16
	9.984349885562397e-07
	8.150333135851106e-06
	5.505973488428165e-07

 62	6.200000000000003e-01
	-3.755436559584359e-16
	4.222277944707946e-17
	-4.840673230382783e-16
	1.144190121205960e-06
	9.341820822138111e-06
	6.379507515045090e-07

 63	6.300000000000003e-01
	-3.728775233474444e-16
	4.323950675814387e-17
	-4.954484154562416e-16
	1.305844479400547e-06
	1.066400849260745e-05
	7.378688545541261e-07

 64	6.400000000000003e-01
	-3.702813620874050e-16
	4.423432169887379e-17
	-5.065817725739844e-16
	1.483784072178124e-06
	1.212026583711896e-05
	8.516770319843985e-07

 65	6.500000000000004e-01
	-3.677570364748143e-16
	4.520578932865130e-17
	-5.174523873463740e-16
	1.678156954028707e-06
	1.371202100279327e-05
	9.807247623440089e-07

 66	6.600000000000004e-01
	-3.653059858214704e-16
	4.615265187432747e-17
	-5.280472399188531e-16
	1.888863560380276e-06
	1.543866642900131e-05
	1.126365657443212e-06

 67	6.700000000000004e-01
	-3.629292351355566e-16
	4.707382972888464e-17
	-5.383552983143804e-16
	2.115560090424066e-06
	1.729756865580441e-05
	1.289937066754139e-06

 68	6.800000000000004e-01
	-3.606274103954341e-16
	4.796842012105921e-17
	-5.483674938083894e-16
	2.357674563852714e-06
	1.928418003868610e-05
	1.472740295623067e-06

 69	6.900000000000004e-01
	-3.584007577779616e-16
	4.883569366353834e-17
	-5.580766734464199e-16
	2.614433947238827e-06
	2.139224045077377e-05
	1.676022404325421e-06

 70	7.000000000000004e-01
	-3.562491661708650e-16
	4.967508901713040e-17
	-5.674775324591397e-16
	2.884899783555395e-06
	2.361404925281421e-05
	1.900960394572469e-06

 71	7.100000000000004e-01
	-3.541721922895630e-16
	5.048620592798923e-17
	-5.765665295168493e-16
	3.168009186746334e-06
	2.594078305331159e-05
	2.148648366298371e-06

 72	7.200000000000004e-01
	-3.521690877303724e-16
	5.126879690505619e-17
	-5.853417878472061e-16
	3.462617921026339e-06
	2.836283340516837e-05
	2.420087973105950e-06

 73	7.300000000000004e-01
	-3.502388273212098e-16
	5.202275780622255e-17
	-5.938029852262457e-16
	3.767542530893493e-06
	3.087014029897016e-05
	2.716182252461552e-06

 74	7.400000000000004e-01
	-3.483801381743774e-16
	5.274811759540537e-17
	-6.019512357567985e-16
	4.081599024152767e-06
	3.345250136191505e-05
	3.037732684018299e-06

 75	7.500000000000004e-01
	-3.465915289003310e-16
	5.344502752004732e-17
	-6.097889661848162e-16
	4.403636310948225e-06
	3.609984207651308e-05
	3.385439154854580e-06

 76	7.600000000000005e-01
	-3.448713185031040e-16
	5.411374994081484e-17
	-6.173197892879734e-16
	4.732563343615134e-06
	3.880243812422666e-05
	3.759902392560943e-06

 77	7.700000000000005e-01
	-3.432176645441285e-16
	5.475464702381771e-17
	-6.245483766171355e-16
	5.067369585563270e-06
	4.155108634493051e-05
	4.161628365693372e-06

 78	7.800000000000005e-01
	-3.416285902287922e-16
	5.536816948175667e-17
	-6.314803325937984e-16
	5.407138997201771e-06
	4.433722525776504e-05
	4.591034139222792e-06

 79	7.900000000000005e-01
	-3.401020101367557e-16
	5.595484552517428e-17
	-6.381220716779868e-16
	5.751058132961374e-06
	4.715300936103467e-05
	5.048454699457891e-06

 80	8.000000000000005e-01
	-3.386357543809230e-16
	5.651527015942909e-17
	-6.444807000320716e-16
	6.098419194629226e-06
	4.999134349580578e-05
	5.534150316402155e-06

 81	8.100000000000005e-01
	-3.372275910394896e-16
	5.705009493797640e-17
	-6.505639028255480e-16
	6.448619001172407e-06
	5.284588455560435e-05
	6.048314080155308e-06

 82	8.200000000000005e-01
	-3.358752467596286e-16
	5.756001825867418e-17
	-6.563798380608627e-16
	6.801154843144886e-06
	5.571101797428814e-05
	6.591079322147762e-06

 83	8.300000000000005e-01
	-3.345764254794230e-16
	5.804577626765495e-17
	-6.619370375561975e-16
	7.155618122622533e-06
	5.858181597215271e-05
	7.162526704463434e-06

 84	8.400000000000005e-01
	-3.333288252563232e-16
	5.850813441514536e-17
	-6.672443155009673e-16
	7.511686566921874e-06
	6.145398371639751e-05
	7.762690826409705e-06

 85	8.500000000000005e-01
	-3.321301532255709e-16
	5.894787968970371e-17
	-6.723106848058512e-16
	7.869115670379207e-06
	6.432379854646796e-05
	8.391566254114592e-06

 86	8.600000000000005e-01
	-3.309781387409656e-16
	5.936581354176333e-17
	-6.771452813019706e-16
	8.227729881152619e-06
	6.718804636960886e-05
	9.049112925194150e-06

 87	8.700000000000006e-01
	-3.298705447732994e-16
	5.976274549412589e-17
	-6.817572957031371e-16
	8.587413921320756e-06
	7.004395834297154e-05
	9.735260916567536e-06

 88	8.800000000000006e-01
	-3.288051776593408e-16
	6.013948742605992e-17
	-6.861559131297591e-16
	8.948104515381119e-06
	7.288915008206856e-05
	1.044991459016605e-05

 89	8.900000000000006e-01
	-3.277798953068428e-16
	6.049684850880574e-17
	-6.903502599013676e-16
	9.309782707648242e-06
	7.572156489735089e-05
	1.119295614987078e-05

 90	9.000000000000006e-01
	-3.267926139693801e-16
	6.083563076337958e-17
	-6.943493572346330e-16
	9.672466873384362e-06
	7.853942196600725e-05
	1.196424865493923e-05

 91	9.100000000000006e-01
	-3.258413137094245e-16
	6.115662520643000e-17
	-6.981620814329590e-16
	1.003620647045679e-05
	8.134116988616154e-05
	1.276363854184356e-05

 92	9.200000000000006e-01
	-3.249240426695683e-16
	6.146060854630754e-17
	-7.017971301197969e-16
	1.040107653570123e-05
	8.412544571949309e-05
	1.359095770911796e-05

 93	9.300000000000006e-01
	-3.240389195910151e-16
	6.174834050899295e-17
	-7.052629963181625e-16
	1.076717308913622e-05
	8.689104097131265e-05
	1.444602572860281e-05

 94	9.400000000000006e-01
	-3.231841387910453e-16
	6.202056102473016e-17
	-7.085679361764225e-16
	1.113460826660957e-05
	8.963686468315257e-05
	1.532864919324204e-05

 95	9.500000000000006e-01
	-3.223579674256513e-16
	6.227798907831486e-17
	-7.117199644520664e-16
	1.150350796555855e-05
	9.236192711785302e-05
	1.623862582436743e-05

 96	9.600000000000006e-01
	-3.215587489168321e-16
	6.252132068986410e-17
	-7.147268308119369e-16
	1.187400814673464e-05
	9.506531168682793e-05
	1.717574332548751e-05

 97	9.700000000000006e-01
	-3.207849022657059e-16
	6.275122788135366e-17
	-7.175960116457433e-16
	1.224625258002833e-05
	9.774615863615231e-05
	1.813978053370523e-05

 98	9.800000000000006e-01
	-3.200349215128474e-16
	6.296835782263138e-17
	-7.203347027980401e-16
	1.262039083014689e-05
	1.004036504215904e-04
	1.913050791237930e-05

 99	9.900000000000007e-01
	-3.193073747315752e-16
	6.317333225084601e-17
	-7.229498152014249e-16
	1.299657661481929e-05
	1.030369999429464e-04
	2.014768791218865e-05

 100	1.000000000000001e+00
	-3.186009026306920e-16
	6.336674712961656e-17
	-7.254479730391033e-16
	1.337496648211023e-05
	1.056454412342990e-04
	2.119107522714666e-05

 101	1.010000000000001e+00
	-3.179142168357723e-16
	6.354917251663788e-17
	-7.278355140929985e-16
	1.375571875865069e-05
	1.082282222433970e-04
	2.226041696825616e-05

 102	1.020000000000001e+00
	-3.172460979109560e-16
	6.372115261085381e-17
	-7.301184919619694e-16
	1.413899272597379e-05
	1.107845993721109e-04
	2.335545277402549e-05

 103	1.030000000000001e+00
	-3.165953931763671e-16
	6.388320595277487e-17
	-7.323026798629190e-16
	1.452494798740753e-05
	1.133138334881299e-04
	2.447591487397304e-05

 104	1.040000000000001e+00
	-3.159610143698326e-16
	6.403582575391855e-17
	-7.343935757550164e-16
	1.491374399295421e-05
	1.158151871546893e-04
	2.562152811853850e-05

 105	1.050000000000001e+00
	-3.153419351955586e-16
	6.417948033367920e-17
	-7.363964085536966e-16
	1.530553969417379e-05
	1.182879228591134e-04
	2.679200998645479e-05

 106	1.060000000000001e+00
	-3.147371887968692e-16
	6.431461364415726e-17
	-7.383161452261619e-16
	1.570049330524159e-05
	1.207313020519443e-04
	2.798707057860599e-05

 107	1.070000000000001e+00
	-3.141458651850052e-16
	6.444164586557933e-17
	-7.401574985836502e-16
	1.609876215004728e-05
	1.231445848361809e-04
	2.920641260564778e-05

 108	1.080000000000001e+00
	-3.135671086513435e-16
	6.456097405690715e-17
	-7.419249356076861e-16
	1.650050257846164e-05
	1.255270301707553e-04
	3.044973137519775e-05

 109	1.090000000000001e+00
	-3.130001151862192e-16
	6.467297284805797e-17
	-7.436226861677561e-16
	1.690586993773171e-05
	1.278778964738882e-04
	3.171671478314340e-05

 110	1.100000000000001e+00
	-3.124441299237677e-16
	6.477799516184121e-17
	-7.452547520064217e-16
	1.731501858741889e-05
	1.301964425306878e-04
	3.300704331257932e-05

 111	1.110000000000001e+00
	-3.118984446288609e-16
	6.487637295525054e-17
	-7.468249158847827e-16
	1.772810194839278e-05
	1.324819286254602e-04
	3.432039004299982e-05

 112	1.120000000000001e+00
	-3.113623952392544e-16
	6.496841797114902e-17
	-7.483367507964766e-16
	1.814527257818443e-05
	1.347336178330238e-04
	3.565642067165850e-05

 113	1.130000000000001e+00
	-3.108353594734361e-16
	6.505442249264530e-17
	-7.497936291721901e-16
	1.856668226651523e-05
	1.369507774150685e-04
	3.701479354840476e-05

 114	1.140000000000001e+00
	-3.103167545124073e-16
	6.513466009359208e-17
	-7.511987320089326e-16
	1.899248214609045e-05
	1.391326802775618e-04
	3.839515972481906e-05

 115	1.150000000000001e+00
	-3.098060347616284e-16
	6.520938637964932e-17
	-7.525550578692852e-16
	1.942282281481188e-05
	1.412786064536041e-04
	3.979716301807357e-05

 116	1.160000000000001e+00
	-3.093026896976543e-16
	6.527883971525447e-17
	-7.538654317055425e-16
	1.985785446644840e-05
	1.433878445831774e-04
	4.122044008962382e-05

 117	1.170000000000001e+00
	-3.088062418025151e-16
	6.534324193263645e-17
	-7.551325134721912e-16
	2.029772702753660e-05
	1.454596933671265e-04
	4.266462053858368e-05

 118	1.180000000000001e+00
	-3.083162445876460e-16
	6.540279901970872e-17
	-7.563588064976571e-16
	2.074259029888313e-05
	1.474934629776021e-04
	4.412932700943063e-05

 119	1.190000000000001e+00
	-3.078322807081095e-16
	6.545770178428780e-17
	-7.575466655927705e-16
	2.119259410053318e-05
	1.494884764112646e-04
	4.561417531353755e-05

 120	1.200000000000001e+00
	-3.073539601669818e-16
	6.550812649261639e-17
	-7.586983048790487e-16
	2.164788841946524e-05
	1.514440707748876e-04
	4.711877456390214e-05

 121	1.210000000000001e+00
	-3.068809186090177e-16
	6.555423548062746e-17
	-7.598158053247837e-16
	2.210862355959204e-05
	1.533595984957520e-04
	4.864272732235847e-05

 122	1.220000000000001e+00
	-3.064128157021373e-16
	6.559617773678366e-17
	-7.609011219810675e-16
	2.257495029390012e-05
	1.552344284514674e-04
	5.018562975848982e-05

 123	1.230000000000001e+00
	-3.059493336047657e-16
	6.563408945565980e-17
	-7.619560909134567e-16
	2.304702001875930e-05
	1.570679470156848e-04
	5.174707181941795e-05

 124	1.240000000000001e+00
	-3.054901755166994e-16
	6.566809456172546e-17
	-7.629824358279826e-16
	2.352498491058509e-05
	1.588595590176386e-04
	5.332663740961779e-05

 125	1.250000000000001e+00
	-3.050350643108474e-16
	6.569830520301967e-17
	-7.639817743926954e-16
	2.400899808515132e-05
	1.606086886146383e-04
	5.492390457988759e-05

 126	1.260000000000001e+00
	-3.045837412430080e-16
	6.572482221461223e-17
	-7.649556242580480e-16
	2.449921375993420e-05
	1.623147800775819e-04
	5.653844572460814e-05

 127	1.270000000000001e+00
	-3.041359647366436e-16
	6.574773555190728e-17
	-7.659054087811026e-16
	2.499578741992305e-05
	1.639772984902968e-04
	5.816982778641934e-05

 128	1.280000000000001e+00
	-3.036915092395535e-16
	6.576712469397483e-17
	-7.668324624599315e-16
	2.549887598737046e-05
	1.655957303641110e-04
	5.981761246746440e-05

 129	1.290000000000001e+00
	-3.032501641492482e-16
	6.578305901720362e-17
	-7.677380360856945e-16
	2.600863799596917e-05
	1.671695841695004e-04
	6.148135644635961e-05

 130	1.300000000000001e+00
	-3.028117328038360e-16
	6.579559813964421e-17
	-7.686233016206796e-16
	2.652523376994464e-05
	1.686983907870025e-04
	6.316061160007237e-05

 131	1.310000000000001e+00
	-3.023760315352273e-16
	6.580479223647393e-17
	-7.694893568112893e-16
	2.704882560854107e-05
	1.701817038798493e-04
	6.485492522991235e-05

 132	1.320000000000001e+00
	-3.019428887815051e-16
	6.581068232705258e-17
	-7.703372295453441e-16
	2.757957797635483e-05
	1.716191001909535e-04
	6.656384029086592e-05

 133	1.330000000000001e+00
	-3.015121442553718e-16
	6.581330053406803e-17
	-7.711678819634368e-16
	2.811765769993777e-05
	1.730101797670240e-04
	6.828689562353084e-05

 134	1.340000000000001e+00
	-3.010836481656438e-16
	6.581267031527679e-17
	-7.719822143341894e-16
	2.866323417105044e-05
	1.743545661126722e-04
	7.002362618794001e-05

 135	1.350000000000001e+00
	-3.006572604888692e-16
	6.580880666835213e-17
	-7.727810687033624e-16
	2.921647955689469e-05
	1.756519062774295e-04
	7.177356329858202e-05

 136	1.360000000000001e+00
	-3.002328502882344e-16
	6.580171630933723e-17
	-7.735652323267026e-16
	2.977756901759900e-05
	1.769018708786373e-04
	7.353623485997050e-05

 137	1.370000000000001e+00
	-2.998102950770173e-16
	6.579139782518847e-17
	-7.743354408963392e-16
	3.034668093116214e-05
	1.781041540631802e-04
	7.531116560213141e-05

 138	1.380000000000001e+00
	-2.993894802239914e-16
	6.577784180086751e-17
	-7.750923815703272e-16
	3.092399712598532e-05
	1.792584734110424e-04
	7.709787731541136e-05

 139	1.390000000000001e+00
	-2.989702983982481e-16
	6.576103092141256e-17
	-7.758366958147671e-16
	3.150970312104129e-05
	1.803645697836695e-04
	7.889588908404340e-05

 140	1.400000000000001e+00
	-2.985526490510671e-16
	6.574094004938577e-17
	-7.765689820676234e-16
	3.210398837363210e-05
	1.814222071201049e-04
	8.070471751793042e-05

 141	1.410000000000001e+00
	-2.981364379325466e-16
	6.571753627805361e-17
	-7.772897982330873e-16
	3.270704653458352e-05
	1.824311721838765e-04
	8.252387698214041e-05

 142	1.420000000000001e+00
	-2.977215766408397e-16
	6.569077896062177e-17
	-7.779996640150495e-16
	3.331907571060488e-05
	1.833912742636038e-04
	8.435287982363568e-05

 143	1.430000000000001e+00
	-2.973079822019440e-16
	6.566061971579727e-17
	-7.786990630978433e-16
	3.394027873341108e-05
	1.843023448303038e-04
	8.619123659478836e-05

 144	1.440000000000001e+00
	-2.968955766781124e-16
	6.562700240991217e-17
	-7.793884451821536e-16
	3.457086343505380e-05
	1.851642371543931e-04
	8.803845627326372e-05

 145	1.450000000000001e+00
	-2.964842868030511e-16
	6.558986311579606e-17
	-7.800682278835921e-16
	3.521104292874187e-05
	1.859768258854035e-04
	8.989404647788506e-05

 146	1.460000000000001e+00
	-2.960740436421845e-16
	6.554913004853862e-17
	-7.807387985010855e-16
	3.586103589424016e-05
	1.867400065974772e-04
	9.175751368012016e-05

 147	1.470000000000001e+00
	-2.956647822763655e-16
	6.550472347824066e-17
	-7.814005156618957e-16
	3.652106686672502e-05
	1.874536953037583e-04
	9.362836341086636e-05

 148	1.480000000000001e+00
	-2.952564415075032e-16
	6.545655561980719e-17
	-7.820537108497281e-16
	3.719136652773067e-05
	1.881178279428701e-04
	9.550610046223492e-05

 149	1.490000000000001e+00
	-2.948489635846787e-16
	6.540453049979154e-17
	-7.826986898220290e-16
	3.787217199655110e-05
	1.887323598407652e-04
	9.739022908407532e-05

 150	1.500000000000001e+00
	-2.944422939494082e-16
	6.534854380026124e-17
	-7.833357339222639e-16
	3.856372712015492e-05
	1.892972651513481e-04
	9.928025317501039e-05

 151	1.510000000000001e+00
	-2.940363809988034e-16
	6.528848267961240e-17
	-7.839651012926078e-16
	3.926628275932209e-05
	1.898125362794074e-04
	1.011756764677834e-04

 152	1.520000000000001e+00
	-2.936311758654465e-16
	6.522422557022704e-17
	-7.845870279921920e-16
	3.998009706832641e-05
	1.902781832895693e-04
	1.030760027087649e-04

 153	1.530000000000001e+00
	-2.932266322128943e-16
	6.515564195282991e-17
	-7.852017290257139e-16
	4.070543576504448e-05
	1.906942333051700e-04
	1.049807358314947e-04

 154	1.540000000000001e+00
	-2.928227060457911e-16
	6.508259210737426e-17
	-7.858093992869521e-16
	4.144257238788514e-05
	1.910607299011798e-04
	1.068893801241795e-04

 155	1.550000000000001e+00
	-2.924193555336357e-16
	6.500492684025583e-17
	-7.864102144214112e-16
	4.219178853538037e-05
	1.913777324955707e-04
	1.088014403911088e-04

 156	1.560000000000001e+00
	-2.920165408473281e-16
	6.492248718763689e-17
	-7.870043316120796e-16
	4.295337408366908e-05
	1.916453157438230e-04
	1.107164221079993e-04

 157	1.570000000000001e+00
	-2.916142240076696e-16
	6.483510409464223e-17
	-7.875918902920114e-16
	4.372762737642154e-05
	1.918635689415936e-04
	1.126338315713187e-04

 158	1.580000000000001e+00
	-2.912123687450722e-16
	6.474259807018111e-17
	-7.881730127871852e-16
	4.451485538100151e-05
	1.920325954409615e-04
	1.145531760417020e-04

 159	1.590000000000001e+00
	-2.908109403697648e-16
	6.464477881714526e-17
	-7.887478048928999e-16
	4.531537380383410e-05
	1.921525120860794e-04
	1.164739638816250e-04

 160	1.600000000000001e+00
	-2.904099056518564e-16
	6.454144483773662e-17
	-7.893163563867004e-16
	4.612950715703897e-05
	1.922234486745206e-04
	1.183957046875547e-04

 161	1.610000000000001e+00
	-2.900092327106666e-16
	6.443238301369515e-17
	-7.898787414806718e-16
	4.695758876740673e-05
	1.922455474511284e-04
	1.203179094168764e-04

 162	1.620000000000001e+00
	-2.896088909127743e-16
	6.431736816121569e-17
	-7.904350192157057e-16
	4.779996071772889e-05
	1.922189626417083e-04
	1.222400905099478e-04

 163	1.630000000000001e+00
	-2.892088507782870e-16
	6.419616256038289e-17
	-7.909852338002109e-16
	4.865697370936375e-05
	1.921438600344959e-04
	1.241617620077292e-04

 164	1.640000000000001e+00
	-2.888090838948806e-16
	6.406851545899473e-17
	-7.915294148955412e-16
	4.952898683371510e-05
	1.920204166179422e-04
	1.260824396655007e-04

 165	1.650000000000001e+00
	-2.884095628391973e-16
	6.393416255071232e-17
	-7.920675778503003e-16
	5.041636723905870e-05
	1.918488202839898e-04
	1.280016410632789e-04

 166	1.660000000000001e+00
	-2.880102611052250e-16
	6.379282542754492e-17
	-7.925997238855483e-16
	5.131948967787143e-05
	1.916292696066636e-04
	1.299188857136387e-04

 167	1.670000000000001e+00
	-2.876111530393305e-16
	6.364421100677551e-17
	-7.931258402327959e-16
	5.223873591853703e-05
	1.913619737064188e-04
	1.318336951677398e-04

 168	1.680000000000001e+00
	-2.872122137816465e-16
	6.348801093254678e-17
	-7.936459002266209e-16
	5.317449400406125e-05
	1.910471522113004e-04
	1.337455931204738e-04

 169	1.690000000000001e+00
	-2.868134192135426e-16
	6.332390095245880e-17
	-7.941598633536346e-16
	5.412715733926699e-05
	1.906850353264994e-04
	1.356541055157597e-04

 170	1.700000000000001e+00
	-2.864147459109568e-16
	6.315154026968930e-17
	-7.946676752594719e-16
	5.509712358692048e-05
	1.902758640243258e-04
	1.375587606531243e-04

 171	1.710000000000001e+00
	-2.860161711033797e-16
	6.297057087133057e-17
	-7.951692677154464e-16
	5.608479335244693e-05
	1.898198903669228e-04
	1.394590892968423e-04

 172	1.720000000000001e+00
	-2.856176726383161e-16
	6.278061683384992e-17
	-7.956645585464960e-16
	5.709056863640085e-05
	1.893173779741310e-04
	1.413546247890180e-04

 173	1.730000000000001e+00
	-2.852192289510923e-16
	6.258128360681885e-17
	-7.961534515220206e-16
	5.811485103378766e-05
	1.887686026487563e-04
	1.432449031681258e-04

 174	1.740000000000001e+00
	-2.848208190398654e-16
	6.237215727634012e-17
	-7.966358362112961e-16
	5.915803965980518e-05
	1.881738531709937e-04
	1.451294632946422e-04

 175	1.750000000000001e+00
	-2.844224224457625e-16
	6.215280380990426e-17
	-7.971115878051249e-16
	6.022052878272510e-05
	1.875334322728469e-04
	1.470078469855140e-04

 176	1.760000000000001e+00
	-2.840240192380527e-16