Title: **.subckt gm_id_pmos
Date: Wed Jun  2 14:53:01  2021
Plotname: DC transfer characteristic
Flags: real
No. Variables: 7
No. Points: 181
Variables:
	0	v(v-sweep)	voltage
	1	@m.xm1.msky130_fd_pr__pfet_01v8[cgb]	capacitance
	2	@m.xm1.msky130_fd_pr__pfet_01v8[cgd]	capacitance
	3	@m.xm1.msky130_fd_pr__pfet_01v8[cgs]	capacitance
	4	@m.xm1.msky130_fd_pr__pfet_01v8[gds]	admittance
	5	@m.xm1.msky130_fd_pr__pfet_01v8[gm]	admittance
	6	i(@m.xm1.msky130_fd_pr__pfet_01v8[id])	current
Values:
 0	0.000000000000000e+00
	-1.341194443784225e-15
	8.155452808259654e-21
	-6.620755018472321e-18
	3.609238761146369e-18
	7.815852683917232e-16
	2.641433496838171e-17

 1	1.000000000000000e-02
	-1.324301361880001e-15
	8.808233613870964e-21
	-6.980447976602825e-18
	4.851974773953125e-18
	1.050697456131376e-15
	3.550949263167130e-17

 2	2.000000000000000e-02
	-1.307982265732435e-15
	9.509176330853769e-21
	-7.368638757825508e-18
	6.522589571700612e-18
	1.412463834023611e-15
	4.773623320282518e-17

 3	3.000000000000000e-02
	-1.292206601496544e-15
	1.026178426686288e-20
	-7.787272858172603e-18
	8.768391683778279e-18
	1.898781832541284e-15
	6.417273406665083e-17

 4	4.000000000000000e-02
	-1.276945709623328e-15
	1.106984552747253e-20
	-8.238457261632458e-18
	1.178739790117433e-17
	2.552528310549898e-15
	8.626834200155227e-17

 5	5.000000000000000e-02
	-1.262172687890467e-15
	1.193746118253293e-20
	-8.724475789994749e-18
	1.584578498296455e-17
	3.431337847010939e-15
	1.159713293077134e-16

 6	6.000000000000000e-02
	-1.247862262186842e-15
	1.286907612857456e-20
	-9.247805925793652e-18
	2.130134548699404e-17
	4.612680712539337e-15
	1.559006117633552e-16

 7	7.000000000000001e-02
	-1.233990665008093e-15
	1.386951276620368e-20
	-9.811137168545938e-18
	2.863501223070223e-17
	6.200687296207626e-15
	2.095765491823510e-16

 8	8.000000000000000e-02
	-1.220535521477035e-15
	1.494400759614079e-20
	-1.041739097543968e-17
	3.849322515239701e-17
	8.335319185950641e-15
	2.817311467596399e-16

 9	9.000000000000000e-02
	-1.207475742605742e-15
	1.609825082146006e-20
	-1.106974232830309e-17
	5.174486687175455e-17
	1.120469311093565e-14
	3.787249567555348e-16

 10	9.999999999999999e-02
	-1.194791425453891e-15
	1.733842902737407e-20
	-1.177164295937667e-17
	6.955777239487848e-17
	1.506164054246108e-14
	5.091073577411565e-16

 11	1.100000000000000e-01
	-1.182463759801588e-15
	1.867127099426791e-20
	-1.252684625958585e-17
	9.350153562806407e-17
	2.024595698239005e-14
	6.843694810131635e-16

 12	1.200000000000000e-01
	-1.170474940937407e-15
	2.010409668531001e-20
	-1.333943388493371e-17
	1.256856406171264e-16
	2.721429316860581e-14
	9.199559642966254e-16

 13	1.300000000000000e-01
	-1.158808088158500e-15
	2.164486943743567e-20
	-1.421384406972866e-17
	1.689450387876438e-16
	3.658030874839543e-14
	1.236624412510034e-15

 14	1.400000000000000e-01
	-1.147447168585291e-15
	2.330225137434320e-20
	-1.515490164980986e-17
	2.270894436611226e-16
	4.916860527444590e-14
	1.662271914007346e-15

 15	1.500000000000000e-01
	-1.136376925905385e-15
	2.508566205273504e-20
	-1.616784979502319e-17
	3.052381805754610e-16
	6.608715693377591e-14
	2.234388844433631e-15

 16	1.600000000000000e-01
	-1.125582813677669e-15
	2.700534034861374e-20
	-1.725838344796360e-17
	4.102698909870548e-16
	8.882456745293138e-14
	3.003355032499141e-15

 17	1.700000000000000e-01
	-1.115050932846365e-15
	2.907240958908247e-20
	-1.843268446554151e-17
	5.514263904813782e-16
	1.193806378783742e-13
	4.036866903529522e-15

 18	1.800000000000000e-01
	-1.104767973134728e-15
	3.129894593667098e-20
	-1.969745846110569e-17
	7.411233729598762e-16
	1.604416160024397e-13
	5.425882796517039e-15

 19	1.900000000000000e-01
	-1.094721158008703e-15
	3.369805003744489e-20
	-2.105997334756320e-17
	9.960385808825338e-16
	2.156153582445242e-13
	7.292605722756260e-15

 20	2.000000000000000e-01
	-1.084898192920787e-15
	3.628392195047167e-20
	-2.252809958578091e-17
	1.338572042522460e-15
	2.897467934262275e-13
	9.801199694830508e-15

 21	2.100000000000000e-01
	-1.075287216564153e-15
	3.907193938390740e-20
	-2.411035214721297e-17
	1.798805029041171e-15
	3.893409651728592e-13
	1.317217243033346e-14

 22	2.200000000000001e-01
	-1.065876754885874e-15
	4.207873927097815e-20
	-2.581593420452749e-17
	2.417127183910860e-15
	5.231301147902879e-13
	1.770167373258927e-14

 23	2.300000000000001e-01
	-1.056655677626199e-15
	4.532230272615817e-20
	-2.765478256833142e-17
	3.247758366097412e-15
	7.028335000238114e-13
	2.378738172618621e-14

 24	2.400000000000001e-01
	-1.047613157168290e-15
	4.882204342625395e-20
	-2.963761489101794e-17
	4.363467800588539e-15
	9.441749141428433e-13
	3.196321357347003e-14

 25	2.500000000000001e-01
	-1.038738629499681e-15
	5.259889946097623e-20
	-3.177597865924000e-17
	5.861894295874607e-15
	1.268244467358249e-12
	4.294584985871661e-14

 26	2.600000000000001e-01
	-1.030021757103376e-15
	5.667542869054915e-20
	-3.408230199331004e-17
	7.874005628052194e-15
	1.703319804407619e-12
	5.769706383314016e-14

 27	2.700000000000001e-01
	-1.021452393613418e-15
	6.107590763145715e-20
	-3.656994626354803e-17
	1.057541322678497e-14
	2.287299744744857e-12
	7.750717877880391e-14

 28	2.800000000000001e-01
	-1.013020550086767e-15
	6.582643386248164e-20
	-3.925326051868098e-17
	1.420149369055542e-14
	3.070953162445006e-12
	1.041067443929183e-13

 29	2.900000000000001e-01
	-1.004716362761760e-15
	7.095503189872121e-20
	-4.214763769822431e-17
	1.906757902942974e-14
	4.122251372380018e-12
	1.398158637448674e-13

 30	3.000000000000001e-01
	-9.965300621926182e-16
	7.649176241774845e-20
	-4.526957256743846e-17
	2.559588545910013e-14
	5.532137917280355e-12
	1.877436941727946e-13

 31	3.100000000000001e-01
	-9.884519436708997e-16
	8.246883463605989e-20
	-4.863672126832794e-17
	3.435138469090248e-14
	7.422201159961677e-12
	2.520547176949257e-13

 32	3.200000000000001e-01
	-9.804723388681013e-16
	8.892072152195574e-20
	-5.226796232124977e-17
	4.608951792738075e-14
	9.954859505323876e-12
	3.383237219166736e-13

 33	3.300000000000001e-01
	-9.725815886597050e-16
	9.588427738943472e-20
	-5.618345883741469e-17
	6.181955567272886e-14
	1.334685490494046e-11
	4.540084213644917e-13

 34	3.400000000000001e-01
	-9.647700171196759e-16
	1.033988572433504e-19
	-6.040472161107889e-17
	8.288857009874560e-14
	1.788708754660184e-11
	6.090777445268973e-13

 35	3.500000000000001e-01
	-9.570279067068286e-16
	1.115064370359191e-19
	-6.495467265025902e-17
	1.110924753837487e-13
	2.396012470079414e-11
	8.168455838689555e-13

 36	3.600000000000002e-01
	-9.493454746997425e-16
	1.202517337459054e-19
	-6.985770857483396e-17
	1.488224793029413e-13
	3.207709191593181e-11
	1.095074944035269e-12

 37	3.700000000000002e-01
	-9.417128509762859e-16
	1.296823239021796e-19
	-7.513976315998205e-17
	1.992576582966471e-13
	4.291611742580766e-11
	1.467436741041058e-12

 38	3.800000000000002e-01
	-9.341200572765205e-16
	1.398487588410150e-19
	-8.082836813021217e-17
	2.666173030530481e-13
	5.737506128197974e-11
	1.965431932007539e-12

 39	3.900000000000002e-01
	-9.265569881343161e-16
	1.508046746101393e-19
	-8.695271111423829e-17
	3.564902608877915e-13
	7.663992523700831e-11
	2.630916205697066e-12

 40	4.000000000000002e-01
	-9.190133937130469e-16
	1.626068940116916e-19
	-9.354368945356775e-17
	4.762627820001186e-13
	1.022731046219901e-10
	3.519404171280328e-12

 41	4.100000000000002e-01
	-9.114788648342110e-16
	1.753155178110465e-19
	-1.006339583181534e-16
	6.356713713295111e-13
	1.363264908501461e-10
	4.704375777003230e-12

 42	4.200000000000002e-01
	-9.039428205442053e-16
	1.889940016302807e-19
	-1.082579713217766e-16
	8.475127899482322e-13
	1.814853202658222e-10
	6.282862204951968e-12

 43	4.300000000000002e-01
	-8.963944986234550e-16
	2.037092144966319e-19
	-1.164520115494794e-16
	1.128549449795006e-12
	2.412495147738409e-10
	8.382651768583842e-12

 44	4.400000000000002e-01
	-8.888229495028943e-16
	2.195314744320300e-19
	-1.252542106119622e-16
	1.500654633845274e-12
	3.201599484189454e-10
	1.117152743781255e-11

 45	4.500000000000002e-01
	-8.812170341143134e-16
	2.365345558563859e-19
	-1.347045530309748e-16
	1.992247641306665e-12
	4.240774207793284e-10
	1.486902406864278e-11

 46	4.600000000000002e-01
	-8.735654262623237e-16
	2.547956629444849e-19
	-1.448448629406507e-16
	2.640073201667380e-12
	5.605218786145646e-10
	1.976127063230427e-11

 47	4.700000000000003e-01
	-8.658566201647511e-16
	2.743953624371094e-19
	-1.557187697693413e-16
	3.491381104147305e-12
	7.390783015704069e-10
	2.621955339895074e-11

 48	4.800000000000003e-01
	-8.580789438632938e-16
	2.954174687782110e-19
	-1.673716492536785e-16
	4.606559461433996e-12
	9.718733297669493e-10
	3.472328964167792e-11

 49	4.900000000000003e-01
	-8.502205792535069e-16
	3.179488738619620e-19
	-1.798505358473985e-16
	6.062266771656393e-12
	1.274122874296785e-09
	4.588812436222812e-11

 50	5.000000000000002e-01
	-8.422695895233602e-16
	3.420793131252002e-19
	-1.932040023203866e-16
	7.955092588555764e-12
	1.664745481672702e-09
	6.049983894126143e-11

 51	5.100000000000002e-01
	-8.342139548100581e-16
	3.679010593151775e-19
	-2.074820021540831e-16
	1.040575356762001e-11
	2.167029303836807e-09
	7.955467475104948e-11

 52	5.200000000000002e-01
	-8.260416169256525e-16
	3.955085348325339e-19
	-2.227356125468480e-16
	1.356380185264913e-11
	2.809332700215541e-09
	1.043065149791792e-10

 53	5.300000000000002e-01
	-8.177405358240817e-16
	4.249978267132429e-19
	-2.390166087637609e-16
	1.761278855665404e-11
	3.625790931799851e-09
	1.363211251708331e-10

 54	5.400000000000003e-01
	-8.092987520466724e-16
	4.564661178253946e-19
	-2.563780393297934e-16
	2.277579867654195e-11
	4.657002627405186e-09
	1.775373893673052e-10

 55	5.500000000000003e-01
	-8.007044626602610e-16
	4.900110041425566e-19
	-2.748728996024004e-16
	2.932125242203953e-11
	5.950658073406847e-09
	2.303351389554972e-10

 56	5.600000000000003e-01
	-7.919461105505681e-16
	5.257296905481802e-19
	-2.945540627059154e-16
	3.756887693830035e-11
	7.562098681964952e-09
	2.976089292972535e-10

 57	5.700000000000003e-01
	-7.830124847189025e-16
	5.637180686911248e-19
	-3.154738078061209e-16
	4.789580077135445e-11
	9.554807703716675e-09
	3.828470516297180e-10

 58	5.800000000000003e-01
	-7.738928328569420e-16
	6.040696686255468e-19
	-3.376832846165500e-16
	6.074281517823295e-11
	1.200087079983003e-08
	4.902152524456529e-10

 59	5.900000000000003e-01
	-7.645769860371887e-16
	6.468744821472129e-19
	-3.612319133354527e-16
	7.662098915241446e-11
	1.498148885767633e-08
	6.246452309161643e-10

 60	6.000000000000003e-01
	-7.550554950018474e-16
	6.922176587848037e-19
	-3.861667207990247e-16
	9.611900688445368e-11
	1.858767422837736e-08
	7.919290522793912e-10

 61	6.100000000000003e-01
	-7.453197771145925e-16
	7.401780791167770e-19
	-4.125316155581390e-16
	1.199117966156208e-10
	2.292130628529982e-08
	9.988221578456246e-10

 62	6.200000000000003e-01
	-7.353622725613070e-16
	7.908268144611523e-19
	-4.403666068393714e-16
	1.487712095542141e-10
	2.809675361767492e-08
	1.253159582911153e-09

 63	6.300000000000003e-01
	-7.251766078549807e-16
	8.442254869874277e-19
	-4.697069749133517e-16
	1.835796580744064e-10
	3.424328139699858e-08
	1.563992141584135e-09

 64	6.400000000000003e-01
	-7.147577641294438e-16
	9.004245498397937e-19
	-5.005824032169369e-16
	2.253477155578163e-10
	4.150845203483792e-08
	1.941751487604506e-09

 65	6.500000000000004e-01
	-7.041022471150275e-16
	9.594615127950145e-19
	-5.330160855837267e-16
	2.752367162074955e-10
	5.006270079968909e-08
	2.398454918370759e-09

 66	6.600000000000004e-01
	-6.932082551014678e-16
	1.021359145103523e-18
	-5.670238250235978e-16
	3.345873928751174e-10
	6.010523735583157e-08
	2.947962450102435e-09

 67	6.700000000000004e-01
	-6.820758406398549e-16
	1.086123693211031e-18
	-6.026131435172527e-16
	4.049555905676236e-10
	7.187140375670439e-08
	3.606300085080873e-09

 68	6.800000000000004e-01
	-6.707070612521342e-16
	1.153743156705790e-18
	-6.397824250894932e-16
	4.881561329627524e-10
	8.564162180990661e-08
	4.392064486311787e-09

 69	6.900000000000004e-01
	-6.591061140428951e-16
	1.224185670707823e-18
	-6.785201168030398e-16
	5.863160300990056e-10
	1.017520942627039e-07
	5.326925737013885e-09

 70	7.000000000000004e-01
	-6.472794488848495e-16
	1.297398046605860e-18
	-7.188040140680587e-16
	7.019384095724032e-10
	1.206074828497405e-07
	6.436246780378938e-09

 71	7.100000000000004e-01
	-6.352358548161577e-16
	1.373304525142373e-18
	-7.606006575838520e-16
	8.379788196924022e-10
	1.426958615856378e-07
	7.749840734373281e-09

 72	7.200000000000004e-01
	-6.229865144791012e-16
	1.451805795955777e-18
	-8.038648691240234e-16
	9.979358565566456e-10
	1.686063190420524e-07
	9.302890645179527e-09

 73	7.300000000000004e-01
	-6.105450218716747e-16
	1.532778335484876e-18
	-8.485394520857478e-16
	1.185958352676106e-09
	1.990496376124359e-07
	1.113706027883582e-08

 74	7.400000000000004e-01
	-5.979273593901377e-16
	1.616074110390819e-18
	-8.945550801377767e-16
	1.406971558343633e-09
	2.348824865514719e-07
	1.330182892347192e-08

 75	7.500000000000004e-01
	-5.851518311093369e-16
	1.701520686259298e-18
	-9.418303933814902e-16
	1.666824754063568e-09
	2.771355009912679e-07
	1.585608729331278e-08

 76	7.600000000000005e-01
	-5.722389504586546e-16
	1.788921771378321e-18
	-9.902723162306252e-16
	1.972462435590960e-09
	3.270454487813128e-07
	1.887003459881817e-08

 77	7.700000000000005e-01
	-5.592112818654612e-16
	1.878058213093253e-18
	-1.039776604856084e-15
	2.332120469514727e-09
	3.860913734479902e-07
	2.242741743403399e-08

 78	7.800000000000005e-01
	-5.460932374971404e-16
	1.968689450061103e-18
	-1.090228624766770e-15
	2.755547261462511e-09
	4.560341041049323e-07
	2.662814769801297e-08

 79	7.900000000000005e-01
	-5.329108318634355e-16
	2.060555408270683e-18
	-1.141504351224828e-15
	3.254247837372968e-09
	5.389578036450545e-07
	3.159132727613865e-08

 80	8.000000000000005e-01
	-5.196913986574825e-16
	2.153378812722803e-18
	-1.193471577115386e-15
	3.841745661181753e-09
	6.373112612951442e-07
	3.745868930174093e-08

 81	8.100000000000005e-01
	-5.064632757254055e-16
	2.246867871025211e-18
	-1.245991305041285e-15
	4.533852928505040e-09
	7.539454340775617e-07
	4.439843705102835e-08

 82	8.200000000000005e-01
	-4.932554653709254e-16
	2.340719270734100e-18
	-1.298919293239440e-15
	5.348935071083158e-09
	8.921423715640617e-07
	5.260941981045807e-08

 83	8.300000000000005e-01
	-4.800972782417767e-16
	2.434621419917707e-18
	-1.352107718843325e-15
	6.308149617383253e-09
	1.055629272740601e-06
	6.232552939328835e-08

 84	8.400000000000005e-01
	-4.670179697435348e-16
	2.528257850865754e-18
	-1.405406917410297e-15
	7.435634056340992e-09
	1.248570282614123e-06
	7.382013242242058e-08

 85	8.500000000000005e-01
	-4.540463782393660e-16
	2.621310700696352e-18
	-1.458667154771966e-15
	8.758613001521312e-09
	1.475528106529321e-06
	8.741027623825393e-08

 86	8.600000000000005e-01
	-4.412105742025892e-16
	2.713464180171039e-18
	-1.511740386313443e-15
	1.030739313768428e-08
	1.741388039935494e-06
	1.034603286071319e-07

 87	8.700000000000006e-01
	-4.285375290005526e-16
	2.804407943428052e-18
	-1.564481959781670e-15
	1.211521666112065e-08
	2.051239001105400e-06
	1.223846459611440e-07

 88	8.800000000000006e-01
	-4.160528111372055e-16
	2.893840276438771e-18
	-1.616752220574395e-15
	1.421795145986782e-08
	2.410209876874944e-06
	1.446488279083709e-07

 89	8.900000000000006e-01
	-4.037803166241273e-16
	2.981471030403401e-18
	-1.668417982962285e-15
	1.665360962993657e-08
	2.823264883672326e-06
	1.707691245662690e-07

 90	9.000000000000006e-01
	-3.917420387596051e-16
	3.067024237453534e-18
	-1.719353836542854e-15
	1.946170435394147e-08
	3.294968177904406e-06
	2.013096323625390e-07

 91	9.100000000000006e-01
	-3.799578810570087e-16
	3.150240359202861e-18
	-1.769443264043479e-15
	2.268247642231375e-08
	3.829234587128224e-06
	2.368770499371551e-07

 92	9.200000000000006e-01
	-3.684455154659284e-16
	3.230878133082621e-18
	-1.818579553970644e-15
	2.635604213366072e-08
	4.429088672473155e-06
	2.781129629021846e-07

 93	9.300000000000006e-01
	-3.572202864571561e-16
	3.308715996203885e-18
	-1.866666499132316e-15
	3.052152968338130e-08
	5.096456921023391e-06
	3.256838640939186e-07

 94	9.400000000000006e-01
	-3.462951600724863e-16
	3.383553080932398e-18
	-1.913618879350926e-15
	3.521627761456895e-08
	5.832016641910582e-06
	3.802693612496195e-07

 95	9.500000000000006e-01
	-3.356807157348265e-16
	3.455209789773350e-18
	-1.959362733402967e-15
	4.047516431140919e-08
	6.635119835362995e-06
	4.425492365063090e-07

 96	9.600000000000006e-01
	-3.253851775197515e-16
	3.523527969000473e-18
	-2.003835431101315e-15
	4.633012220291594e-08
	7.503801647512907e-06
	5.131901637634136e-07

 97	9.700000000000006e-01
	-3.154144807349333e-16
	3.588370710340840e-18
	-2.046985561292725e-15
	5.280986719965582e-08
	8.434872613879151e-06
	5.928329346621836e-07

 98	9.800000000000006e-01
	-3.057723690502168e-16
	3.649621817715160e-18
	-2.088772655271072e-15
	5.993984755424901e-08
	9.424083774476319e-06
	6.820809842572660e-07

 99	9.900000000000007e-01
	-2.964605170641283e-16
	3.707184981459938e-18
	-2.129166767679812e-15
	6.774239188859213e-08
	1.046634582587747e-05
	7.814908561997426e-07

 100	1.000000000000001e+00
	-2.874786730652129e-16
	3.760982705680983e-18
	-2.168147938434535e-15
	7.623701768766943e-08
	1.155597903344381e-05
	8.915650334949566e-07

 101	1.010000000000001e+00
	-2.788248168217133e-16
	3.810955035577058e-18
	-2.205705559632614e-15
	8.544085136850129e-08
	1.268697003061471e-05
	1.012747322030226e-06

 102	1.020000000000001e+00
	-2.704953274773928e-16
	3.857058130976605e-18
	-2.241837670964062e-15
	9.536910924021681e-08
	1.385321438995248e-05
	1.145420746715482e-06

 103	1.030000000000001e+00
	-2.624851570081197e-16
	3.899262730249457e-18
	-2.276550205953129e-15
	1.060355937348219e-07
	1.504872888817683e-05
	1.289907732745580e-06

 104	1.040000000000001e+00
	-2.547880051661482e-16
	3.937552545513029e-18
	-2.309856209610092e-15
	1.174531687431193e-07
	1.626782342492259e-05
	1.446472213589984e-06

 105	1.050000000000001e+00
	-2.473964923717043e-16
	3.971922625971173e-18
	-2.341775045922562e-15
	1.296341891452237e-07
	1.750522844271874e-05
	1.615323236877869e-06

 106	1.060000000000001e+00
	-2.403023275728879e-16
	4.002377721608886e-18
	-2.372331611219112e-15
	1.425908705462027e-07
	1.875617862164349e-05
	1.796619623487250e-06

 107	1.070000000000001e+00
	-2.334964686581395e-16
	4.028930674588669e-18
	-2.401555566931745e-15
	1.563355944190458e-07
	2.001645717398018e-05
	1.990475261860002e-06

 108	1.080000000000001e+00
	-2.269692735486517e-16
	4.051600860786413e-18
	-2.429480602782863e-15
	1.708811506751086e-07
	2.128240717948174e-05
	2.196964674547388e-06

 109	1.090000000000001e+00
	-2.207106406048357e-16
	4.070412699152275e-18
	-2.456143739018311e-15
	1.862409240768262e-07
	2.255091725931432e-05
	2.416128563618002e-06

 110	1.100000000000001e+00
	-2.147101374394378e-16
	4.085394242127717e-18
	-2.481584674070291e-15
	2.024290332059190e-07
	2.381938878841917e-05
	2.647979114708110e-06

 111	1.110000000000001e+00
	-2.089571176333955e-16
	4.096575856292226e-18
	-2.505845182009271e-15
	2.194604314014917e-07
	2.508569112059008e-05
	2.892504908257381e-06

 112	1.120000000000001e+00
	-2.034408251955368e-16
	4.103988998815285e-18
	-2.528968562361317e-15
	2.373509787065072e-07
	2.634811024064673e-05
	3.149675346089781e-06

 113	1.130000000000001e+00
	-1.981504868938320e-16
	4.107665092178995e-18
	-2.550999143338452e-15
	2.561174928601662e-07
	2.760529508993241e-05
	3.419444549817286e-06

 114	1.140000000000001e+00
	-1.930753928162425e-16
	4.107634497019638e-18
	-2.571981838254568e-15
	2.757777860938274e-07
	2.885620468867673e-05
	3.701754724309357e-06

 115	1.150000000000001e+00
	-1.882049656973701e-16
	4.103925580793750e-18
	-2.591961753867204e-15
	2.963506931657400e-07
	3.010005819102219e-05
	3.996539005631907e-06

 116	1.160000000000001e+00
	-1.835288196781221e-16
	4.096563878276830e-18
	-2.610983848578999e-15
	3.178560948480340e-07
	3.133628919569627e-05
	4.303723829999179e-06

 117	1.170000000000001e+00
	-1.790368092552597e-16
	4.085571338607630e-18
	-2.629092637829911e-15
	3.403149400305265e-07
	3.256450500350465e-05
	4.623230870207878e-06

 118	1.180000000000001e+00
	-1.747190692319425e-16
	4.070965652653283e-18
	-2.646331943587461e-15
	3.637492687530871e-07
	3.378445104760261e-05
	4.954978590476102e-06

 119	1.190000000000001e+00
	-1.705660465050644e-16
	4.052759653840373e-18
	-2.662744684572548e-15
	3.881822378162349e-07
	3.499598039932367e-05
	5.298883471147328e-06

 120	1.200000000000001e+00
	-1.665685245258446e-16
	4.030960785226919e-18
	-2.678372703717681e-15
	4.136381501263882e-07
	3.619902804336697e-05
	5.654860952618231e-06

 121	1.210000000000001e+00
	-1.627176404958401e-16
	4.005570635706624e-18
	-2.693256632598801e-15
	4.401424930758533e-07
	3.739358975751387e-05
	6.022826225988351e-06

 122	1.220000000000001e+00
	-1.590049006497456e-16
	3.976584476425722e-18
	-2.707435769508017e-15
	4.677219596371863e-07
	3.857970353072775e-05
	6.402694422247451e-06

 123	1.230000000000001e+00
	-1.554221828785638e-16
	3.943990943895335e-18
	-2.720948017822493e-15
	4.964045195783200e-07
	3.975743698124624e-05
	6.794381453958424e-06

 124	1.240000000000001e+00
	-1.519617428068427e-16
	3.907771658065225e-18
	-2.733829814166775e-15
	5.262194521018036e-07
	4.092687500109223e-05
	7.197803923597974e-06

 125	1.250000000000001e+00
	-1.486162123174508e-16
	3.867900922174479e-18
	-2.746116094259580e-15
	5.571974067407539e-07
	4.208811115550519e-05
	7.612879332563481e-06

 126	1.260000000000001e+00
	-1.453785957960528e-16
	3.824345436710380e-18
	-2.757840273094190e-15
	5.893704662755967e-07
	4.324124083850252e-05
	8.039526132146465e-06

 127	1.270000000000001e+00
	-1.422422638333498e-16
	3.777064031789151e-18
	-2.769034240332119e-15
	6.227722163898814e-07
	4.438635609351288e-05
	8.477663714665869e-06

 128	1.280000000000001e+00
	-1.392009448549480e-16
	3.726007412439336e-18
	-2.779728368565867e-15
	6.574378224209926e-07
	4.552354178916553e-05
	8.927212359824925e-06

 129	1.290000000000001e+00
	-1.362487150956084e-16
	3.671117911659577e-18
	-2.789951532335668e-15
	6.934041136182760e-07
	4.665287288529203e-05
	9.388093148480498e-06

 130	1.300000000000001e+00
	-1.333799872842838e-16
	3.612329246498263e-18
	-2.799731136007684e-15
	7.307096753894017e-07
	4.777441256542013e-05
	9.860227853576893e-06

 131	1.310000000000001e+00
	-1.305894983595098e-16
	3.549566272758437e-18
	-2.809093148832908e-15
	7.693949500935063e-07
	4.888821104884642e-05
	1.034353881594491e-05

 132	1.320000000000001e+00
	-1.278722964914751e-16
	3.482744734259432e-18
	-2.818062145705467e-15
	8.095023470265456e-07
	4.999430492761280e-05
	1.083794881096358e-05

 133	1.330000000000001e+00
	-1.252237276476777e-16
	3.411771002884986e-18
	-2.826661352324212e-15
	8.510763623404066e-07
	5.109271690149599e-05
	1.134338091067777e-05

 134	1.340000000000001e+00
	-1.226394219034248e-16
	3.336541805914362e-18
	-2.834912693631899e-15
	8.941637097433292e-07
	5.218345580776490e-05
	1.185975834481742e-05

 135	1.350000000000001e+00
	-1.201152796664863e-16
	3.256943937365016e-18
	-2.842836844561449e-15
	9.388134629463250e-07
	5.326651686235672e-05
	1.238700436323350e-05

 136	1.360000000000001e+00
	-1.176474579567685e-16
	3.172853950275429e-18
	-2.850453282259335e-15
	9.850772109503494e-07
	5.434188204570736e-05
	1.292504210151941e-05

 137	1.370000000000001e+00
	-1.152323568567704e-16
	3.084137827022385e-18
	-2.857780339081998e-15
	1.033009227413359e-06
	5.540952058016651e-05
	1.347379445098778e-05

 138	1.380000000000001e+00
	-1.128666062265762e-16
	2.990650624902125e-18
	-2.864835255773554e-15
	1.082666655498062e-06
	5.646938945714620e-05
	1.403318393370109e-05

 139	1.390000000000001e+00
	-1.105470527579464e-16
	2.892236094306966e-18
	-2.871634234332447e-15
	1.134109709782279e-06
	5.752143398126166e-05
	1.460313258288300e-05

 140	1.400000000000001e+00
	-1.082707474254747e-16
	2.788726266903705e-18
	-2.878192490162177e-15
	1.187401897017343e-06
	5.856558830605191e-05
	1.518356182874724e-05

 141	1.410000000000001e+00
	-1.060349333785131e-16
	2.679941011265773e-18
	-2.884524303177860e-15
	1.242610257749912e-06
	5.960177594171476e-05
	1.577439238955914e-05

 142	1.420000000000001e+00
	-1.038370343054402e-16
	2.565687553429681e-18
	-2.890643067606679e-15
	1.299805631081389e-06
	6.062991021988120e-05
	1.637554416756866e-05

 143	1.430000000000001e+00
	-1.016746432914648e-16
	2.445759959841945e-18
	-2.896561340278155e-15
	1.359062945133343e-06
	6.164989470404184e-05
	1.698693614932985e-05

 144	1.440000000000001e+00
	-9.954551218258626e-17
	2.319938580132265e-18
	-2.902290887249188e-15
	1.420461536118809e-06
	6.266162353694045e-05
	1.760848630981423e-05

 145	1.450000000000001e+00
	-9.744754146107698e-17
	2.187989447098636e-18
	-2.907842728651281e-15
	1.484085499296518e-06
	6.366498171827921e-05
	1.824011151965512e-05

 146	1.460000000000001e+00
	-9.537877063190027e-17
	2.049663631217636e-18
	-2.913227181682971e-15
	1.550024075511492e-06
	6.465984530751031e-05
	1.888172745479800e-05

 147	1.470000000000001e+00
	-9.333736911468165e-17
	1.904696546901392e-18
	-2.918453901700600e-15
	1.618372077509193e-06
	6.564608154744427e-05
	1.953324850778670e-05

 148	1.480000000000001e+00
	-9.132162763189811e-17
	1.752807207613519e-18
	-2.923531921385751e-15
	1.689230360757626e-06
	6.662354890496151e-05
	2.019458769987328e-05

 149	1.490000000000001e+00
	-8.932995008093735e-17
	1.593697426828562e-18
	-2.928469687988304e-15
	1.762706344131228e-06
	6.759209702533728e-05
	2.086565659310682e-05

 150	1.500000000000001e+00
	-8.736084587524960e-17
	1.427050961675678e-18
	-2.933275098661227e-15
	1.838914586509056e-06
	6.855156659663051e-05
	2.154636520151835e-05

 151	1.510000000000001e+00
	-8.541292273805989e-17
	1.252532595948899e-18
	-2.937955533916837e-15
	1.917977426126889e-06
	6.950178912028986e-05
	2.223662190048417e-05

 152	1.520000000000001e+00
	-8.348487993084040e-17
	1.069787158991125e-18
	-2.942517889245148e-15
	2.000025690406431e-06
	7.044258658362762e-05
	2.293633333330822e-05

 153	1.530000000000001e+00
	-8.157550189783216e-17
	8.784384767733149e-19
	-2.946968604943587e-15
	2.085199484972319e-06
	7.137377102913214e-05
	2.364540431401892e-05

 154	1.540000000000001e+00
	-7.968365230746497e-17
	6.780882512889053e-19
	-2.951313694213543e-15
	2.173649071665173e-06
	7.229514401474400e-05
	2.436373772531774e-05

 155	1.550000000000001e+00
	-7.780826847124426e-17
	4.683148641712469e-19
	-2.955558769584130e-15
	2.265535846571347e-06
	7.320649595825683e-05
	2.509123441055890e-05

 156	1.560000000000001e+00
	-7.594835612072787e-17
	2.486721002202184e-19
	-2.959709067726618e-15
	2.361033430415228e-06
	7.410760535790414e-05
	2.582779305855988e-05

 157	1.570000000000001e+00
	-7.410298452341443e-17
	1.868778628994661e-20
	-2.963769472725037e-15
	2.460328885093582e-06
	7.499823788001908e-05
	2.657331007996223e-05

 158	1.580000000000001e+00
	-7.227128191872671e-17
	-2.221376592498654e-19
	-2.967744537869353e-15
	2.563624071655836e-06
	7.587814530340683e-05
	2.732767947376130e-05

 159	1.590000000000001e+00
	-7.045243125575350e-17
	-4.743327715152533e-19
	-2.971638506037798e-15
	2.671137166622126e-06
	7.674706430880876e-05
	2.809079268251592e-05

 160	1.600000000000001e+00
	-6.864566621502056e-17
	-7.384566838606170e-19
	-2.975455328734249e-15
	2.783104355133247e-06
	7.760471510060725e-05
	2.886253843462483e-05

 161	1.610000000000001e+00
	-6.685026749715679e-17
	-1.015100877926103e-18
	-2.979198683845485e-15
	2.899781720970569e-06
	7.845079984681130e-05
	2.964280257192382e-05

 162	1.620000000000001e+00
	-6.506555936206170e-17
	-1.304891044780725e-18
	-2.982871992181540e-15
	3.021447354860031e-06
	7.928500092247811e-05
	3.043146786071355e-05

 163	1.630000000000001e+00
	-6.329090640291272e-17
	-1.608489063214111e-18
	-2.986478432860333e-15
	3.148403703524814e-06
	8.010697894121776e-05
	3.122841378417384e-05

 164	1.640000000000001e+00
	-6.152571054006287e-17
	-1.926595101477548e-18
	-2.990020957595697e-15
	3.280980182458074e-06
	8.091637055951726e-05
	3.203351631397111e-05

 165	1.650000000000001e+00
	-5.976940822068941e-17
	-2.259949849012436e-18
	-2.993502303945399e-15
	3.419536075046083e-06
	8.171278603956684e-05
	3.284664765871198e-05

 166	1.660000000000001e+00
	-5.802146781079565e-17
	-2.609336884924862e-18
	-2.996925007573224e-15
	3.564463739078421e-06
	8.249580655846398e-05
	3.366767598676740e-05

 167	1.670000000000001e+00
	-5.628138716691763e-17
	-2.975585190167680e-18
	-3.000291413576614e-15
	3.716192138296030e-06
	8.326498125557725e-05
	3.449646512088324e-05

 168	1.680000000000001e+00
	-5.454869137566013e-17
	-3.359571810563369e-18
	-3.003603686928597e-15
	3.875190710753951e-06
	8.401982401609833e-05
	3.533287420194590e-05

 169	1.690000000000001e+00
	-5.282293064989497e-17
	-3.762224677938983e-18
	-3.006863822080107e-15
	4.041973576524705e-06
	8.475980999815415e-05
	3.617675731928882e-05

 170	1.700000000000001e+00
	-5.110367837118338e-17
	-4.184525596740352e-18
	-3.010073651766081e-15
	4.217104073545409e-06
	8.548437192424726e-05
	3.702796310506962e-05

 171	1.710000000000001e+00
	-4.939052926866136e-17
	-4.627513403526984e-18
	-3.013234855056183e-15
	4.401199590890509e-06
	8.619289617633447e-05
	3.788633429053822e-05

 172	1.720000000000001e+00
	-4.768309772533403e-17
	-5.092287306725534e-18
	-3.016348964688279e-15
	4.594936641902585e-06
	8.688471875881659e-05
	3.875170722252841e-05

 173	1.730000000000001e+00
	-4.598101620330459e-17
	-5.580010413906523e-18
	-3.019417373720555e-15
	4.799056083750153e-06
	8.755912122644051e-05
	3.962391133931052e-05

 174	1.740000000000001e+00
	-4.428393378019275e-17
	-6.091913453644904e-18
	-3.022441341535519e-15
	5.014368343385374e-06
	8.821532671590777e-05
	4.050276860610411e-05

 175	1.750000000000001e+00
	-4.259151478948999e-17
	-6.629298698703616e-18
	-3.025421999227126e-15
	5.241758451032603e-06
	8.885249627192953e-05
	4.138809291219805e-05

 176	1.760000000000001e+00