Title: **.subckt gm_id_pmos
Date: Wed Jun  2 14:58:09  2021
Plotname: DC transfer characteristic
Flags: real
No. Variables: 7
No. Points: 181
Variables:
	0	v(v-sweep)	voltage
	1	@m.xm1.msky130_fd_pr__pfet_01v8[cgb]	capacitance
	2	@m.xm1.msky130_fd_pr__pfet_01v8[cgd]	capacitance
	3	@m.xm1.msky130_fd_pr__pfet_01v8[cgs]	capacitance
	4	@m.xm1.msky130_fd_pr__pfet_01v8[gds]	admittance
	5	@m.xm1.msky130_fd_pr__pfet_01v8[gm]	admittance
	6	i(@m.xm1.msky130_fd_pr__pfet_01v8[id])	current
Values:
 0	0.000000000000000e+00
	-6.526467467987277e-16
	5.850564600020555e-21
	-5.107671295933520e-18
	1.649454440352579e-15
	7.832475633895286e-14
	2.642493677621949e-15

 1	1.000000000000000e-02
	-6.466402908893156e-16
	6.304733035335791e-21
	-5.424059456622211e-18
	2.218494541576908e-15
	1.053375926139059e-13
	3.554147983332840e-15

 2	2.000000000000000e-02
	-6.407819293644570e-16
	6.793085521165634e-21
	-5.764649080748838e-18
	2.983760483020633e-15
	1.416608690099393e-13
	4.780190107751752e-15

 3	3.000000000000000e-02
	-6.350651695906180e-16
	7.318305950284869e-21
	-6.131284119511647e-18
	4.012870279646018e-15
	1.905003385620538e-13
	6.428964821538591e-15

 4	4.000000000000000e-02
	-6.294837999898034e-16
	7.883312333067868e-21
	-6.525967867831607e-18
	5.396715890460685e-15
	2.561637366917091e-13
	8.646113905115650e-15

 5	5.000000000000000e-02
	-6.240318689262226e-16
	8.491277425534959e-21
	-6.950876716535874e-18
	7.257459114014236e-15
	3.444385752777712e-13
	1.162739255320952e-14

 6	6.000000000000000e-02
	-6.187036645684566e-16
	9.145650643324503e-21
	-7.408374739616197e-18
	9.759266185983166e-15
	4.630988909368838e-13
	1.563587713634258e-14

 7	7.000000000000001e-02
	-6.134936956788396e-16
	9.850181263075778e-21
	-7.901029114383039e-18
	1.312271447644467e-14
	6.225846491514584e-13
	2.102506184332810e-14

 8	8.000000000000000e-02
	-6.083966732812439e-16
	1.060894291022267e-20
	-8.431626370778277e-18
	1.764412021835009e-14
	8.369121409384831e-13
	2.826984845123993e-14

 9	9.000000000000000e-02
	-6.034074931586748e-16
	1.142635933118390e-20
	-9.003189465572538e-18
	2.372145696387423e-14
	1.124893147644440e-12
	3.800810945576735e-14

 10	9.999999999999999e-02
	-5.985212191327094e-16
	1.230723144837265e-20
	-9.618995677651071e-18
	3.188909475640629e-14
	1.511766414898063e-12
	5.109640535911736e-14

 11	1.100000000000000e-01
	-5.937330670779537e-16
	1.325676569823409e-20
	-1.028259532198084e-17
	4.286433485950851e-14
	2.031379044244578e-12
	6.868463477929523e-14

 12	1.200000000000000e-01
	-5.890383896257901e-16
	1.428060365541445e-20
	-1.099783128202576e-17
	5.760970318254079e-14
	2.729100326132439e-12
	9.231598642775834e-14

 13	1.300000000000000e-01
	-5.844326615130701e-16
	1.538485294981684e-20
	-1.176885936305260e-17
	7.741627390494421e-14
	3.665709555105466e-12
	1.240606690019529e-13

 14	1.400000000000000e-01
	-5.799114655329030e-16
	1.657611948723655e-20
	-1.260016947165431e-17
	1.040150223284723e-13
	4.922576606803762e-12
	1.666946794864687e-13

 15	1.500000000000000e-01
	-5.754704790462833e-16
	1.786154098786501e-20
	-1.349660762948830e-17
	1.397254799352847e-13
	6.608554667765125e-12
	2.239385392677109e-13

 16	1.600000000000000e-01
	-5.711054610150706e-16
	1.924882185945779e-20
	-1.446339883117016e-17
	1.876539470940973e-13
	8.869134837754453e-12
	3.007757452992828e-13

 17	1.700000000000000e-01
	-5.668122395190397e-16
	2.074626942249991e-20
	-1.550617075691217e-17
	2.519574139726800e-13
	1.189858002812099e-11
	4.038769845385805e-13

 18	1.800000000000000e-01
	-5.625866997221466e-16
	2.236283150224757e-20
	-1.663097834919127e-17
	3.381944020468587e-13
	1.595596966874455e-11
	5.421643618366826e-13

 19	1.900000000000000e-01
	-5.584247722562962e-16
	2.410813539596629e-20
	-1.784432925870545e-17
	4.537904779138456e-13
	2.138635742785687e-11
	7.275605083549785e-13

 20	2.000000000000000e-01
	-5.543224219945935e-16
	2.599252821178660e-20
	-1.915321015738706e-17
	6.086545805123271e-13
	2.864858243603042e-11
	9.759810900883181e-13

 21	2.100000000000000e-01
	-5.502756371907694e-16
	2.802711855709115e-20
	-2.056511390444028e-17
	8.159929767978862e-13
	3.835169123422063e-11
	1.308646655041102e-12

 22	2.200000000000001e-01
	-5.462804189669801e-16
	3.022381952788018e-20
	-2.208806753439304e-17
	1.093381107428125e-12
	5.130243188712695e-11
	1.753811775190596e-12

 23	2.300000000000001e-01
	-5.423327711390493e-16
	3.259539291483688e-20
	-2.373066101322801e-17
	1.464170321711652e-12
	6.856687796338955e-11
	2.349036958286999e-12

 24	2.400000000000001e-01
	-5.384286903762583e-16
	3.515549449551214e-20
	-2.550207667889918e-17
	1.959327034890328e-12
	9.154992429576581e-11
	3.144162734491859e-12

 25	2.500000000000001e-01
	-5.345641567022208e-16
	3.791872022393641e-20
	-2.741211924525861e-17
	2.619826584076782e-12
	1.220971498961894e-10
	4.205186464438889e-12

 26	2.600000000000001e-01
	-5.307351243544569e-16
	4.090065305794865e-20
	-2.947124620291589e-17
	3.499753214153243e-12
	1.626243247940768e-10
	5.619291277909073e-12

 27	2.700000000000001e-01
	-5.269375130327208e-16
	4.411791007953781e-20
	-3.169059839620931e-17
	4.670291004959644e-12
	2.162805728844723e-10
	7.501333076444464e-12

 28	2.800000000000001e-01
	-5.231671995803637e-16
	4.758818946370751e-20
	-3.408203049182715e-17
	6.224827341846583e-12
	2.871517742384023e-10
	1.000215471036362e-11

 29	2.900000000000001e-01
	-5.194200101587617e-16
	5.133031673607961e-20
	-3.665814098129813e-17
	8.285428989010029e-12
	3.805110256612530e-10
	1.331916381918296e-11

 30	3.000000000000001e-01
	-5.156917129921800e-16
	5.536428962810322e-20
	-3.943230127627667e-17
	1.101098793636348e-11
	5.031226459821727e-10
	1.770967793568607e-11

 31	3.100000000000001e-01
	-5.119780117793625e-16
	5.971132069107437e-20
	-4.241868336223152e-17
	1.460736535573699e-11
	6.636050278294501e-10
	2.350760023420426e-11

 32	3.200000000000001e-01
	-5.082745398884719e-16
	6.439387666609990e-20
	-4.563228537279840e-17
	1.933988084594648e-11
	8.728552902047725e-10
	3.114403167935415e-11

 33	3.300000000000001e-01
	-5.045768554736131e-16
	6.943571342663879e-20
	-4.908895433376236e-17
	2.554849263873645e-11
	1.144534900904656e-09
	4.117243723395703e-11

 34	3.400000000000001e-01
	-5.008804376737617e-16
	7.486190511622401e-20
	-5.280540520442216e-17
	3.366598356441300e-11
	1.495610079412420e-09
	5.429894999057331e-11

 35	3.500000000000001e-01
	-4.971806840791188e-16
	8.069886588904636e-20
	-5.679923520997110e-17
	4.423939880743154e-11
	1.946934014579368e-09
	7.141830231194649e-11

 36	3.600000000000002e-01
	-4.934729096730053e-16
	8.697436244594963e-20
	-6.108893232563242e-17
	5.795486933430059e-11
	2.523850369986423e-09
	9.365570584717943e-11

 37	3.700000000000002e-01
	-4.897523474825919e-16
	9.371751531848495e-20
	-6.569387662478652e-17
	7.566580036589277e-11
	3.256790484080951e-09
	1.224147605343721e-10

 38	3.800000000000002e-01
	-4.860141511949678e-16
	1.009587866188854e-19
	-7.063433305955525e-17
	9.842421916935253e-11
	4.181832118713493e-09
	1.594311708949040e-10

 39	3.900000000000002e-01
	-4.822534000177026e-16
	1.087299517323000e-19
	-7.593143409495948e-17
	1.275148868768384e-10
	5.341188192803006e-09
	2.068317239065386e-10

 40	4.000000000000002e-01
	-4.784651060835336e-16
	1.170640521929876e-19
	-8.160715047591651e-17
	1.644916270160898e-10
	6.783602447854086e-09
	2.671977019841642e-10

 41	4.100000000000002e-01
	-4.746442247160096e-16
	1.259953267652585e-19
	-8.768424827420989e-17
	2.112152640456748e-10
	8.564647568367418e-09
	3.436317580368436e-10

 42	4.200000000000002e-01
	-4.707856678856106e-16
	1.355591175536469e-19
	-9.418623024713340e-17
	2.698926577424662e-10
	1.074695032892681e-08
	4.398273718131059e-10

 43	4.300000000000002e-01
	-4.668843211924050e-16
	1.457917478083357e-19
	-1.011372594490241e-16
	3.431166123945829e-10
	1.340040550717101e-08
	5.601404333733710e-10

 44	4.400000000000002e-01
	-4.629350647097513e-16
	1.567303679869730e-19
	-1.085620629813225e-16
	4.339069529126132e-10
	1.660248001832935e-08
	7.096633164873223e-10

 45	4.500000000000002e-01
	-4.589327981989894e-16
	1.684127660412716e-19
	-1.164857047169158e-16
	5.457537618465699e-10
	2.043873879328707e-08
	8.943029888519691e-10

 46	4.600000000000002e-01
	-4.548724714330748e-16
	1.808771369374750e-19
	-1.249336522148336e-16
	6.826645779551543e-10
	2.500375967584130e-08
	1.120866144892287e-09

 47	4.700000000000003e-01
	-4.507491165335525e-16
	1.941618185703267e-19
	-1.339316272172559e-16
	8.492183186898715e-10
	3.040258557515566e-08
	1.397156140791739e-09

 48	4.800000000000003e-01
	-4.465578878952640e-16
	2.083049755369719e-19
	-1.435051792643719e-16
	1.050629124792734e-09
	3.675282859587765e-08
	1.732087534497421e-09

 49	4.900000000000003e-01
	-4.422941066497368e-16
	2.233442369740230e-19
	-1.536795717988572e-16
	1.292823978491219e-09
	4.418754353522395e-08
	2.135825495490405e-09

 50	5.000000000000002e-01
	-4.379533100264922e-16
	2.393162860244990e-19
	-1.644795268547700e-16
	1.582538025254734e-09
	5.285890036053085e-08
	2.619957918526809e-09

 51	5.100000000000002e-01
	-4.335313057116301e-16
	2.562563995355997e-19
	-1.759289392311598e-16
	1.927431383668471e-09
	6.294266429696743e-08
	3.197708307526841e-09

 52	5.200000000000002e-01
	-4.290242309561039e-16
	2.741979382899948e-19
	-1.880505604810018e-16
	2.336230889877423e-09
	7.464346899993219e-08
	3.884197439672754e-09

 53	5.300000000000002e-01
	-4.244286160110506e-16
	2.931717894622711e-19
	-2.008656539228216e-16
	2.818899800204813e-09
	8.820087381444437e-08
	4.696761679754416e-09

 54	5.400000000000003e-01
	-4.197414512684183e-16
	3.132057646328025e-19
	-2.143936229122051e-16
	3.386838096871194e-09
	1.038962274232115e-07
	5.655335861405355e-09

 55	5.500000000000003e-01
	-4.149602572647754e-16
	3.343239585705258e-19
	-2.286516157837049e-16
	4.053115798149970e-09
	1.220604119221210e-07
	6.782909119742679e-09

 56	5.600000000000003e-01
	-4.100831564699599e-16
	3.565460760857313e-19
	-2.436541121715191e-16
	4.832741603148352e-09
	1.430826053141461e-07
	8.106063113520439e-09

 57	5.700000000000003e-01
	-4.051089455374126e-16
	3.798867365041167e-19
	-2.594124968071806e-16
	5.742969282622782e-09
	1.674202683725774e-07
	9.655603794228724e-09

 58	5.800000000000003e-01
	-4.000371664497083e-16
	4.043547676528932e-19
	-2.759346283287442e-16
	6.803644392914644e-09
	1.956106276679691e-07
	1.146730027185903e-08

 59	5.900000000000003e-01
	-3.948681747631571e-16
	4.299525035836353e-19
	-2.932244120583959e-16
	8.037594039921972e-09
	2.282839869256400e-07
	1.358274735215052e-08

 60	6.000000000000003e-01
	-3.896032029539708e-16
	4.566751024668918e-19
	-3.112813870398914e-16
	9.471062435757624e-09
	2.661792525964519e-07
	1.605037191606011e-08

 61	6.100000000000003e-01
	-3.842444167113724e-16
	4.845099030433714e-19
	-3.301003387885249e-16
	1.113419474540709e-08
	3.101621061298256e-07
	1.892660741029861e-08

 62	6.200000000000003e-01
	-3.787949619270876e-16
	5.134358395534567e-19
	-3.496709501001875e-16
	1.306157108128941e-08
	3.612462934226243e-07
	2.227726524097588e-08

 63	6.300000000000003e-01
	-3.732590001124486e-16
	5.434229360336471e-19
	-3.699775027962541e-16
	1.529279132931265e-08
	4.206185268887245e-07
	2.617913670571313e-08

 64	6.400000000000003e-01
	-3.676417300485919e-16
	5.744319011122675e-19
	-3.909986433547922e-16
	1.787310962830902e-08
	4.896674985293141e-07
	3.072186409229924e-08

 65	6.500000000000004e-01
	-3.619493936536510e-16
	6.064138438225941e-19
	-4.127072249154082e-16
	2.085411460943235e-08
	5.700174679443294e-07
	3.601012442298650e-08

 66	6.600000000000004e-01
	-3.561892643400642e-16
	6.393101293772946e-19
	-4.350702370858486e-16
	2.429444775628479e-08
	6.635667941339920e-07
	4.216617354996411e-08

 67	6.700000000000004e-01
	-3.503696165357655e-16
	6.730523912574567e-19
	-4.580488332931257e-16
	2.826054729432011e-08
	7.725315915960057e-07
	4.933280114808567e-08

 68	6.800000000000004e-01
	-3.444996755480759e-16
	7.075627123662736e-19
	-4.815984631183215e-16
	3.282739870884400e-08
	8.994943670505628e-07
	5.767674746837691e-08

 69	6.900000000000004e-01
	-3.385895475437908e-16
	7.427539834529857e-19
	-5.056691141821017e-16
	3.807926524031544e-08
	1.047456981574530e-06
	6.739262890055508e-08

 70	7.000000000000004e-01
	-3.326501300802622e-16
	7.785304416714047e-19
	-5.302056648021568e-16
	4.411036255648646e-08
	1.219896527637412e-06
	7.870740929019057e-08

 71	7.100000000000004e-01
	-3.266930043202991e-16
	8.147883862138753e-19
	-5.551483449618646e-16
	5.102543150671602e-08
	1.420821659620567e-06
	9.188543486012423e-08

 72	7.200000000000004e-01
	-3.207303107628121e-16
	8.514170617316672e-19
	-5.804332992854901e-16
	5.894015199155050e-08
	1.654825539076717e-06
	1.072340193592978e-07

 73	7.300000000000004e-01
	-3.147746109826948e-16
	8.882996940370511e-19
	-6.059932419094331e-16
	6.798133052289114e-08
	1.927129868132620e-06
	1.251095194685111e-07

 74	7.400000000000004e-01
	-3.088387384583635e-16
	9.253146567245779e-19
	-6.317581895839623e-16
	7.828678552215430e-08
	2.243612582794086e-06
	1.459237758270487e-07

 75	7.500000000000004e-01
	-3.029356420375809e-16
	9.623367421891265e-19
	-6.576562562434686e-16
	9.000484988545789e-08
	2.610809878357653e-06
	1.701507111334216e-07

 76	7.600000000000005e-01
	-2.970782259214284e-16
	9.992385063655518e-19
	-6.836144898326647e-16
	1.032934124073856e-07
	3.035881708142832e-06
	1.983327753375697e-07

 77	7.700000000000005e-01
	-2.912791902110203e-16
	1.035891653621175e-18
	-7.095597305209719e-16
	1.183184311042650e-07
	3.526529257283809e-06
	2.310868151596962e-07

 78	7.800000000000005e-01
	-2.855508760507364e-16
	1.072168426771207e-18
	-7.354194686772668e-16
	1.352518748551611e-07
	4.090853780478938e-06
	2.691088330764697e-07

 79	7.900000000000005e-01
	-2.799051192160252e-16
	1.107942967238310e-18
	-7.611226811532613e-16
	1.542690866060243e-07
	4.737149236176352e-06
	3.131770079994168e-07

 80	8.000000000000005e-01
	-2.743531156452662e-16
	1.143092611921310e-18
	-7.866006255157240e-16
	1.755456112390161e-07
	5.473626776419402e-06
	3.641523001013125e-07

 81	8.100000000000005e-01
	-2.689053019262492e-16
	1.177499096257912e-18
	-8.117875737953046e-16
	1.992535908548862e-07
	6.308077334191120e-06
	4.229759818041202e-07

 82	8.200000000000005e-01
	-2.635712531492927e-16
	1.211049637062127e-18
	-8.366214699529284e-16
	2.255578931144106e-07
	7.247488576498990e-06
	4.906635484670367e-07

 83	8.300000000000005e-01
	-2.583595998672627e-16
	1.243637873721909e-18
	-8.610444984334085e-16
	2.546121949163959e-07
	8.297642866751174e-06
	5.682946774030160e-07

 84	8.400000000000005e-01
	-2.532779651965893e-16
	1.275164651948638e-18
	-8.850035546869231e-16
	2.865552829435300e-07
	9.462731475245904e-06
	6.569992157370453e-07

 85	8.500000000000005e-01
	-2.483329223911773e-16
	1.305538640152904e-18
	-9.084506121910206e-16
	3.215078441880255e-07
	1.074502477494417e-05
	7.579395568132888e-07

 86	8.600000000000005e-01
	-2.435299725577857e-16
	1.334676774365768e-18
	-9.313429841052104e-16
	3.595699969013798e-07
	1.214463672613724e-05
	8.722901605098894e-07

 87	8.700000000000006e-01
	-2.388735415864792e-16
	1.362504533146451e-18
	-9.536434810640326e-16
	4.008197551164093e-07
	1.365941391713899e-05
	1.001215321050366e-06

 88	8.800000000000006e-01
	-2.343669948654584e-16
	1.388956048880377e-18
	-9.753204696211071e-16
	4.453125348111589e-07
	1.528496569350090e-05
	1.145846523838325e-06

 89	8.900000000000006e-01
	-2.300126679505026e-16
	1.413974066097499e-18
	-9.963478383912946e-16
	4.930817099584664e-07
	1.701483487674486e-05
	1.307260814444940e-06

 90	9.000000000000006e-01
	-2.258119110721672e-16
	1.437509760816019e-18
	-1.016704880935883e-15
	5.441401283860300e-07
	1.884079154229135e-05
	1.486461511276563e-06

 91	9.100000000000006e-01
	-2.217651451882506e-16
	1.459522437389623e-18
	-1.036376105870607e-15
	5.984824160595382e-07
	2.075321856665471e-05
	1.684362345432610e-06

 92	9.200000000000006e-01
	-2.178719272183027e-16
	1.479979120912383e-18
	-1.055350985556549e-15
	6.560878452080322e-07
	2.274154951673481e-05
	1.901775752367728e-06

 93	9.300000000000006e-01
	-2.141310221197517e-16
	1.498854063968102e-18
	-1.073623655097455e-15
	7.169235212392836e-07
	2.479471782523678e-05
	2.139405632172807e-06

 94	9.400000000000006e-01
	-2.105404795669753e-16
	1.516128186489741e-18
	-1.091192573272399e-15
	7.809476536192857e-07
	2.690158045961171e-05
	2.397844501723494e-06

 95	9.500000000000006e-01
	-2.070977131590114e-16
	1.531788466834386e-18
	-1.108060156553874e-15
	8.481127097786734e-07
	2.905128773327407e-05
	2.677574633633978e-06

 96	9.600000000000006e-01
	-2.037995802917631e-16
	1.545827301007960e-18
	-1.124232396578793e-15
	9.183682991290217e-07
	3.123358134343609e-05
	2.978972544876016e-06

 97	9.700000000000006e-01
	-2.006424610703746e-16
	1.558241845422491e-18
	-1.139718470435459e-15
	9.916636868968094e-07
	3.343901310045062e-05
	3.302316071453428e-06

 98	9.800000000000006e-01
	-1.976223348922568e-16
	1.569033356763313e-18
	-1.154530351981004e-15
	1.067949887000105e-06
	3.565908563079564e-05
	3.647793236015089e-06

 99	9.900000000000007e-01
	-1.947348535883638e-16
	1.578206540598481e-18
	-1.168682431181340e-15
	1.147181324569789e-06
	3.788632277544946e-05
	4.015512162458715e-06

 100	1.000000000000001e+00
	-1.919754102594517e-16
	1.585768918377437e-18
	-1.182191147229502e-15
	1.229317089622417e-06
	4.011428128885992e-05
	4.405511390287781e-06

 101	1.010000000000001e+00
	-1.893392031772751e-16
	1.591730220521330e-18
	-1.195074639997062e-15
	1.314321823670797e-06
	4.233751704899022e-05
	4.817770067268808e-06

 102	1.020000000000001e+00
	-1.868212943323755e-16
	1.596101811467419e-18
	-1.207352423244946e-15
	1.402166291988652e-06
	4.455151884025922e-05
	5.252217631516886e-06

 103	1.030000000000001e+00
	-1.844166623967874e-16
	1.598896150839669e-18
	-1.219045081990597e-15
	1.492827697813700e-06
	4.675262145934194e-05
	5.708742718928747e-06

 104	1.040000000000001e+00
	-1.821202500299501e-16
	1.600126293406977e-18
	-1.230173995515162e-15
	1.586289793121253e-06
	4.893790795491261e-05
	6.187201140014505e-06

 105	1.050000000000001e+00
	-1.799270055891173e-16
	1.599805429175465e-18
	-1.240761086705364e-15
	1.682542835669836e-06
	5.110510866628216e-05
	6.687422857593364e-06

 106	1.060000000000001e+00
	-1.778319194125746e-16
	1.597946463846199e-18
	-1.250828597761598e-15
	1.781583435376121e-06
	5.325250266024383e-05
	7.209217962983703e-06

 107	1.070000000000001e+00
	-1.758300549267250e-16
	1.594561638950076e-18
	-1.260398891762561e-15
	1.883414325866294e-06
	5.537882534906090e-05
	7.752381694976810e-06

 108	1.080000000000001e+00
	-1.739165748889585e-16
	1.589662190236978e-18
	-1.269494279149788e-15
	1.988044090036459e-06
	5.748318458132647e-05
	8.316698575971681e-06

 109	1.090000000000001e+00
	-1.720867631197605e-16
	1.583258042330132e-18
	-1.278136867872435e-15
	2.095486862085508e-06
	5.956498634326787e-05
	8.901945756517563e-06

 110	1.100000000000001e+00
	-1.703360421025410e-16
	1.575357537241282e-18
	-1.286348435701687e-15
	2.205762022979686e-06
	6.162387036406847e-05
	9.507895666428298e-06

 111	1.110000000000001e+00
	-1.686599868408788e-16
	1.565967194058133e-18
	-1.294150323072720e-15
	2.318893901727156e-06
	6.365965533858572e-05
	1.013431807046239e-05

 112	1.120000000000001e+00
	-1.670543349343696e-16
	1.555091504151916e-18
	-1.301563347272425e-15
	2.434911526685278e-06
	6.567229387385867e-05
	1.078098186673441e-05

 113	1.130000000000001e+00
	-1.655149958487821e-16
	1.542732715736153e-18
	-1.308607720798726e-15
	2.553848219596127e-06
	6.766183171039220e-05
	1.144765524777924e-05

 114	1.140000000000001e+00
	-1.640380531974268e-16
	1.528890712840244e-18
	-1.315303011088765e-15
	2.675741568349630e-06
	6.962838176726402e-05
	1.213410795233079e-05

 115	1.150000000000001e+00
	-1.626197691939793e-16
	1.513562841817260e-18
	-1.321668087475955e-15
	2.800633070978763e-06
	7.157209665725731e-05
	1.284011082158546e-05

 116	1.160000000000001e+00
	-1.612565849216304e-16
	1.496743790573569e-18
	-1.327721093508922e-15
	2.928567983331070e-06
	7.349315033027551e-05
	1.356543634429801e-05

 117	1.170000000000001e+00
	-1.599451194114771e-16
	1.478425474638433e-18
	-1.333479427043586e-15
	3.059595157811968e-06
	7.539172334699796e-05
	1.430985879314901e-05

 118	1.180000000000001e+00
	-1.586821673451248e-16
	1.458596934752981e-18
	-1.338959729399701e-15
	3.193766907950001e-06
	7.726799179874035e-05
	1.507315423268178e-05

 119	1.190000000000001e+00
	-1.574646956240337e-16
	1.437244243614325e-18
	-1.344177882278913e-15
	3.331138897797809e-06
	7.912211920610578e-05
	1.585510043185569e-05

 120	1.200000000000001e+00
	-1.562898390221178e-16
	1.414350419577342e-18
	-1.349149011256645e-15
	3.471770054991205e-06
	8.095425082143011e-05
	1.665547670804963e-05

 121	1.210000000000001e+00
	-1.551548951131981e-16
	1.389895345283474e-18
	-1.353887494774748e-15
	3.615722506212154e-06
	8.276450984678615e-05
	1.747406372404715e-05

 122	1.220000000000001e+00
	-1.540573186413718e-16
	1.363855689348337e-18
	-1.358406977673432e-15
	3.763061533802231e-06
	8.455299515807673e-05
	1.831064325504329e-05

 123	1.230000000000001e+00
	-1.529947154804446e-16
	1.336204829394862e-18
	-1.362720388407874e-15
	3.913855552333021e-06
	8.631978019561101e-05
	1.916499793898597e-05

 124	1.240000000000001e+00
	-1.519648363084318e-16
	1.306912774863670e-18
	-1.366839959195413e-15
	4.068176104034469e-06
	8.806491274230147e-05
	2.003691102047167e-05

 125	1.250000000000001e+00
	-1.509655701047544e-16
	1.275946088165901e-18
	-1.370777248433104e-15
	4.226097872102913e-06
	8.978841536270104e-05
	2.092616609589897e-05

 126	1.260000000000001e+00
	-1.499949375611977e-16
	1.243267802864966e-18
	-1.374543164811710e-15
	4.387698711045124e-06
	9.149028632017070e-05
	2.183254686553976e-05

 127	1.270000000000001e+00
	-1.490510844828693e-16
	1.208837337681848e-18
	-1.378147992631095e-15
	4.553059693357953e-06
	9.317050082637494e-05
	2.275583689655244e-05

 128	1.280000000000001e+00
	-1.481322752422390e-16
	1.172610405213866e-18
	-1.381601417893338e-15
	4.722265171990185e-06
	9.482901250793041e-05
	2.369581939966172e-05

 129	1.290000000000001e+00
	-1.472368863377353e-16
	1.134538914339271e-18
	-1.384912554814005e-15
	4.895402858181218e-06
	9.646575500021913e-05
	2.465227702120580e-05

 130	1.300000000000001e+00
	-1.463634000982408e-16
	1.094570865350015e-18
	-1.388089972449218e-15
	5.072563914419390e-06
	9.808064359894998e-05
	2.562499165146188e-05

 131	1.310000000000001e+00
	-1.455103985660051e-16
	1.052650236913235e-18
	-1.391141721186832e-15
	5.253843062409160e-06
	9.967357691670243e-05
	2.661374424954876e-05

 132	1.320000000000001e+00
	-1.446765575828987e-16
	1.008716864008367e-18
	-1.394075358894662e-15
	5.439338706082961e-06
	1.012444385050839e-04
	2.761831468475166e-05

 133	1.330000000000001e+00
	-1.438606410984168e-16
	9.627063060231559e-19
	-1.396897976557743e-15
	5.629153069838625e-06
	1.027930984138055e-04
	2.863848159377276e-05

 134	1.340000000000001e+00
	-1.430614957123102e-16
	9.145497042181542e-19
	-1.399616223270606e-15
	5.823392352329377e-06
	1.043194146664252e-04
	2.967402225316851e-05

 135	1.350000000000001e+00
	-1.422780454600471e-16
	8.641736277850522e-19
	-1.402236330479904e-15
	6.022166896281203e-06
	1.058232346391198e-04
	3.072471246606812e-05

 136	1.360000000000001e+00
	-1.415092868454120e-16
	8.114999077334792e-19
	-1.404764135397993e-15
	6.225591374962906e-06
	1.073043963339672e-04
	3.179032646215816e-05

 137	1.370000000000001e+00
	-1.407542841213164e-16
	7.564454578397686e-19
	-1.407205103529612e-15
	6.433784996088059e-06
	1.087627295421228e-04
	3.287063680984972e-05

 138	1.380000000000001e+00
	-1.400121648172368e-16
	6.989220818844517e-19
	-1.409564350272101e-15
	6.646871724089548e-06
	1.101980568952200e-04
	3.396541433951886e-05

 139	1.390000000000001e+00
	-1.392821155095724e-16
	6.388362663902307e-19
	-1.411846661565003e-15
	6.864980521874229e-06
	1.116101948054719e-04
	3.507442807670232e-05

 140	1.400000000000001e+00
	-1.385633778294910e-16
	5.760889580513889e-19
	-1.414056513577718e-15
	7.088245613342528e-06
	1.129989542964909e-04
	3.619744518414671e-05

 141	1.410000000000001e+00
	-1.378552447015202e-16
	5.105753250185936e-19
	-1.416198091434548e-15
	7.316806768143573e-06
	1.143641417278755e-04
	3.733423091162764e-05

 142	1.420000000000001e+00
	-1.371570568051076e-16
	4.421845011702909e-19
	-1.418275306985192e-15
	7.550809610337519e-06
	1.157055594172814e-04
	3.848454855250222e-05

 143	1.430000000000001e+00
	-1.364681992506582e-16
	3.707993124638713e-19
	-1.420291815635719e-15
	7.790405952846590e-06
	1.170230061640309e-04
	3.964815940598209e-05

 144	1.440000000000001e+00
	-1.357880984610134e-16
	2.962959844167540e-19
	-1.422251032260759e-15
	8.035754159805999e-06
	1.183162776784505e-04
	4.082482274417031e-05

 145	1.450000000000001e+00
	-1.351162192490324e-16
	2.185438297203258e-19
	-1.424156146221920e-15
	8.287019539166582e-06
	1.195851669210528e-04
	4.201429578293453e-05

 146	1.460000000000001e+00
	-1.344520620817567e-16
	1.374049149367586e-19
	-1.426010135520831e-15
	8.544374768161676e-06
	1.208294643554990e-04
	4.321633365573770e-05

 147	1.470000000000001e+00
	-1.337951605215990e-16
	5.273370517325255e-20
	-1.427815780117596e-15
	8.808000354526049e-06
	1.220489581189854e-04
	4.443068938958268e-05

 148	1.480000000000001e+00
	-1.331450788350657e-16
	-3.562331443247474e-20
	-1.429575674447159e-15
	9.078085136646199e-06
	1.232434341133363e-04
	4.565711388226030e-05

 149	1.490000000000001e+00
	-1.325014097596601e-16
	-1.278280416452553e-19
	-1.431292239167096e-15
	9.354826826127735e-06
	1.244126760196881e-04
	4.689535588012379e-05

 150	1.500000000000001e+00
	-1.318637724198439e-16
	-2.240511857815875e-19
	-1.432967732170904e-15
	9.638432596582906e-06
	1.255564652392180e-04
	4.814516195563807e-05

 151	1.510000000000001e+00
	-1.312318103831770e-16
	-3.244727234427791e-19
	-1.434604258900938e-15
	9.929119722765141e-06
	1.266745807619364e-04
	4.940627648397448e-05

 152	1.520000000000001e+00
	-1.306051898480794e-16
	-4.292823827736865e-19
	-1.436203781994899e-15
	1.022711627450105e-05
	1.277667989651362e-04
	5.067844161793981e-05

 153	1.530000000000001e+00
	-1.299835979549766e-16
	-5.386801577649956e-19
	-1.437768130299219e-15
	1.053266187018292e-05
	1.288328933426899e-04
	5.196139726054382e-05

 154	1.540000000000001e+00
	-1.293667412129448e-16
	-6.528768541954743e-19
	-1.439299007281949e-15
	1.084600849487085e-05
	1.298726341660214e-04
	5.325488103451504e-05

 155	1.550000000000001e+00
	-1.287543440343311e-16
	-7.720946688910352e-19
	-1.440797998876788e-15
	1.116742138829782e-05
	1.308857880772888e-04
	5.455862824808935e-05

 156	1.560000000000001e+00
	-1.281461473701965e-16
	-8.965678040596959e-19
	-1.442266580788801e-15
	1.149718000823928e-05
	1.318721176150885e-04
	5.587237185639030e-05

 157	1.570000000000001e+00
	-1.275419074397939e-16
	-1.026543118543538e-18
	-1.443706125291237e-15
	1.183557907477656e-05
	1.328313806728903e-04
	5.719584241773000e-05

 158	1.580000000000001e+00
	-1.269413945476551e-16
	-1.162280817912806e-18
	-1.445117907541554e-15
	1.218292970089770e-05
	1.337633298904543e-04
	5.852876804415951e-05

 159	1.590000000000001e+00
	-1.263443919822302e-16
	-1.304055185408570e-18
	-1.446503111443499e-15
	1.253956061458622e-05
	1.346677119786999e-04
	5.987087434559921e-05

 160	1.600000000000001e+00
	-1.257506949903643e-16
	-1.452155355822247e-18
	-1.447862835080747e-15
	1.290581947697648e-05
	1.355442669789613e-04
	6.122188436688798e-05

 161	1.610000000000001e+00
	-1.251601098222458e-16
	-1.606886134477911e-18
	-1.449198095746271e-15
	1.328207430021006e-05
	1.363927274583242e-04
	6.258151851710384e-05

 162	1.620000000000001e+00
	-1.245724528417763e-16
	-1.768568863558684e-18
	-1.450509834590335e-15
	1.366871496720087e-05
	1.372128176438733e-04
	6.394949449052991e-05

 163	1.630000000000001e+00
	-1.239875496976485e-16
	-1.937542338086525e-18
	-1.451798920908605e-15
	1.406615485346924e-05
	1.380042525002757e-04
	6.532552717867307e-05

 164	1.640000000000001e+00
	-1.234052345507090e-16
	-2.114163773928713e-18
	-1.453066156090684e-15
	1.447483254837658e-05
	1.387667367573011e-04
	6.670932857280263e-05

 165	1.650000000000001e+00
	-1.228253493534728e-16
	-2.298809830255828e-18
	-1.454312277248086e-15
	1.489521366928574e-05
	1.394999638967376e-04
	6.810060765655129e-05

 166	1.660000000000001e+00
	-1.222477431779466e-16
	-2.491877688919656e-18
	-1.455537960539442e-15
	1.532779275717019e-05
	1.402036151118560e-04
	6.949907028823536e-05

 167	1.670000000000001e+00
	-1.216722715881699e-16
	-2.693786193246265e-18
	-1.456743824209616e-15
	1.577309523574685e-05
	1.408773582572450e-04
	7.090441907270282e-05

 168	1.680000000000001e+00
	-1.210987960541463e-16
	-2.904977048751366e-18
	-1.457930431358242e-15
	1.623167940805008e-05
	1.415208468126458e-04
	7.231635322272986e-05

 169	1.690000000000001e+00
	-1.205271834040647e-16
	-3.125916088275677e-18
	-1.459098292452171e-15
	1.670413845421512e-05
	1.421337188914932e-04
	7.373456841024678e-05

 170	1.700000000000001e+00
	-1.199573053119534e-16
	-3.357094604004745e-18
	-1.460247867595289e-15
	1.719110238185169e-05
	1.427155963333705e-04
	7.515875660803543e-05

 171	1.710000000000001e+00
	-1.193890378181191e-16
	-3.599030748773874e-18
	-1.461379568568205e-15
	1.769323986553264e-05
	1.432660839295595e-04
	7.658860592296773e-05

 172	1.720000000000001e+00
	-1.188222608799286e-16
	-3.852271008964824e-18
	-1.462493760649456e-15
	1.821125989449498e-05
	1.437847688423480e-04
	7.802380042241586e-05

 173	1.730000000000001e+00
	-1.182568579506936e-16
	-4.117391751162054e-18
	-1.463590764228964e-15
	1.874591312766557e-05
	1.442712202915969e-04
	7.946401995612274e-05

 174	1.740000000000001e+00
	-1.176927155846128e-16
	-4.395000844556762e-18
	-1.464670856223796e-15
	1.929799283286343e-05
	1.447249895960000e-04
	8.090893997663291e-05

 175	1.750000000000001e+00
	-1.171297230658874e-16
	-4.685739360850111e-18
	-1.465734271305491e-15
	1.986833526307815e-05
	1.451456106709445e-04
	8.235823136232977e-05
