Title: **.subckt gm_id_pmos
Date: Wed Jun  2 15:00:13  2021
Plotname: DC transfer characteristic
Flags: real
No. Variables: 7
No. Points: 181
Variables:
	0	v(v-sweep)	voltage
	1	@m.xm1.msky130_fd_pr__pfet_01v8[cgb]	capacitance
	2	@m.xm1.msky130_fd_pr__pfet_01v8[cgd]	capacitance
	3	@m.xm1.msky130_fd_pr__pfet_01v8[cgs]	capacitance
	4	@m.xm1.msky130_fd_pr__pfet_01v8[gds]	admittance
	5	@m.xm1.msky130_fd_pr__pfet_01v8[gm]	admittance
	6	i(@m.xm1.msky130_fd_pr__pfet_01v8[id])	current
Values:
 0	0.000000000000000e+00
	-1.206431678591055e-15
	7.285248543520869e-21
	-6.122089582860418e-18
	7.293112933677385e-18
	1.191905768252669e-15
	4.026921654420476e-17

 1	1.000000000000000e-02
	-1.191733725256571e-15
	7.866592972664009e-21
	-6.458334912700919e-18
	9.805167521227201e-18
	1.602438491367970e-15
	5.413983493747868e-17

 2	2.000000000000000e-02
	-1.177519581833876e-15
	8.490886341753249e-21
	-6.821080795435255e-18
	1.318242956546049e-17
	2.154362384464392e-15
	7.278791891023414e-17

 3	3.000000000000000e-02
	-1.163764097491637e-15
	9.161269901913873e-21
	-7.212155461491103e-18
	1.772286797609323e-17
	2.896368137511628e-15
	9.785884539306008e-17

 4	4.000000000000000e-02
	-1.150443638097646e-15
	9.881142293903363e-21
	-7.633539330244313e-18
	2.382705368879099e-17
	3.893910801585381e-15
	1.315645934379275e-16

 5	5.000000000000000e-02
	-1.137535977372806e-15
	1.065418493477186e-20
	-8.087379491266144e-18
	3.203348077051824e-17
	5.234980031638267e-15
	1.768788192454088e-16

 6	6.000000000000000e-02
	-1.125020194184372e-15
	1.148438977835825e-20
	-8.576005538432635e-18
	4.306604210911264e-17
	7.037855436407350e-15
	2.377990711241560e-16

 7	7.000000000000001e-02
	-1.112876575893626e-15
	1.237608954601931e-20
	-9.101946807425026e-18
	5.789783952449900e-17
	9.461529400837572e-15
	3.196992393851381e-16

 8	8.000000000000000e-02
	-1.101086527579256e-15
	1.333399051024181e-20
	-9.667951058753878e-18
	7.783694416468798e-17
	1.271971400756174e-14
	4.298032743873285e-16

 9	9.000000000000000e-02
	-1.089632486894965e-15
	1.436320789957712e-20
	-1.027700463991950e-17
	1.046416512935299e-16
	1.709966316519055e-14
	5.778218667335445e-16

 10	9.999999999999999e-02
	-1.078497844280487e-15
	1.546930397929480e-20
	-1.093235415197643e-17
	1.406753628988068e-16
	2.298746318856301e-14
	7.768081027647954e-16

 11	1.100000000000000e-01
	-1.067666868223187e-15
	1.665832884888172e-20
	-1.163752963796449e-17
	1.891147072780304e-16
	3.090201151415061e-14
	1.044307334056534e-15

 12	1.200000000000000e-01
	-1.057124635258093e-15
	1.793686398557960e-20
	-1.239636930376618e-17
	2.542291696685254e-16
	4.154066311232622e-14
	1.403902310678893e-15

 13	1.300000000000000e-01
	-1.046856964393922e-15
	1.931206855308581e-20
	-1.321304577613827e-17
	3.417567667225466e-16
	5.584054312790142e-14
	1.887289269081572e-15

 14	1.400000000000000e-01
	-1.036850355658807e-15
	2.079172848670567e-20
	-1.409209389830034e-17
	4.594086925620978e-16
	7.506089017348317e-14
	2.537067148635038e-15

 15	1.500000000000000e-01
	-1.027091932469726e-15
	2.238430836098062e-20
	-1.503844006057370e-17
	6.175471191971874e-16
	1.008936246570009e-13
	3.410484458251622e-15

 16	1.600000000000000e-01
	-1.017569387542503e-15
	2.409900604320726e-20
	-1.605743306230930e-17
	8.300954182143049e-16
	1.356117869596237e-13
	4.584471917841744e-15

 17	1.700000000000000e-01
	-1.008270932074153e-15
	2.594581013637456e-20
	-1.715487650167740e-17
	1.115760274526852e-15
	1.822687692770536e-13
	6.162401046291301e-15

 18	1.800000000000000e-01
	-9.991852479441059e-16
	2.793556021762007e-20
	-1.833706269169513e-17
	1.499672209819189e-15
	2.449656494973605e-13
	8.283158971759374e-15

 19	1.900000000000000e-01
	-9.903014426965176e-16
	3.008000988304327e-20
	-1.961080810392488e-17
	2.015587214303281e-15
	3.292097930661226e-13
	1.113333070208737e-14

 20	2.000000000000000e-01
	-9.816090070809685e-16
	3.239189261602368e-20
	-2.098349034528793e-17
	2.708840546133083e-15
	4.423957062139946e-13
	1.496354896300939e-14

 21	2.100000000000000e-01
	-9.730977749434061e-16
	3.488499050325969e-20
	-2.246308667786436e-17
	3.640308339388699e-15
	5.944495446233864e-13
	2.011043116702832e-14

 22	2.200000000000001e-01
	-9.647578852734534e-16
	3.757420582958046e-20
	-2.405821409591764e-17
	4.891718806819253e-15
	7.986925527869188e-13
	2.702600317387981e-14

 23	2.300000000000001e-01
	-9.565797462278550e-16
	4.047563558786653e-20
	-2.577817097782497e-17
	6.572769589990884e-15
	1.072997143810004e-12
	3.631715008149885e-14

 24	2.400000000000001e-01
	-9.485540009631965e-16
	4.360664894256857e-20
	-2.763298033233632e-17
	8.830660477418165e-15
	1.441333781714994e-12
	4.879848791889557e-14

 25	2.500000000000001e-01
	-9.406714951241210e-16
	4.698596768247737e-20
	-2.963343465748904e-17
	1.186285344576446e-14
	1.935839190762575e-12
	6.556318602313138e-14

 26	2.600000000000001e-01
	-9.329232458467704e-16
	5.063374968844631e-20
	-3.179114242545921e-17
	1.593414065997188e-14
	2.599579136756344e-12
	8.807777891263608e-14

 27	2.700000000000001e-01
	-9.253004121506942e-16
	5.457167542220293e-20
	-3.411857619617080e-17
	2.139945630429839e-14
	3.490235246511933e-12
	1.183090072471287e-13

 28	2.800000000000001e-01
	-9.177942666071373e-16
	5.882303741067609e-20
	-3.662912234532324e-17
	2.873433650251609e-14
	4.685019055339570e-12
	1.588933742329696e-13

 29	2.900000000000001e-01
	-9.103961681872778e-16
	6.341283265343283e-20
	-3.933713236688730e-17
	3.857554717327841e-14
	6.287212738863954e-12
	2.133635958735601e-13

 30	3.000000000000001e-01
	-9.030975362110871e-16
	6.836785781599611e-20
	-4.225797567459045e-17
	5.177520565859482e-14
	8.434861059931352e-12
	2.864507164144643e-13

 31	3.100000000000001e-01
	-8.958898253367293e-16
	7.371680698596169e-20
	-4.540809377981148e-17
	6.947277257700058e-14
	1.131230060296584e-11
	3.844866793909437e-13

 32	3.200000000000001e-01
	-8.887645015516084e-16
	7.949037165893361e-20
	-4.880505566299026e-17
	9.319065266033644e-14
	1.516541953565883e-11
	5.159399989880950e-13

 33	3.300000000000001e-01
	-8.817130191501771e-16
	8.572134248454634e-20
	-5.246761408071670e-17
	1.249608989066950e-13
	2.032180457163762e-11
	6.921273743460300e-13

 34	3.400000000000001e-01
	-8.747267987102925e-16
	9.244471213652193e-20
	-5.641576245961516e-17
	1.674927601372383e-13
	2.721726336496146e-11
	9.281572519802599e-13

 35	3.500000000000001e-01
	-8.677972061096636e-16
	9.969777847239200e-20
	-6.067079191986204e-17
	2.243936597708570e-13
	3.643062267252676e-11
	1.244178212147269e-12

 36	3.600000000000002e-01
	-8.609155326569106e-16
	1.075202469161597e-19
	-6.525534784453268e-17
	3.004597667716335e-13
	4.872920697037684e-11
	1.667026498827693e-12

 37	3.700000000000002e-01
	-8.540729764480085e-16
	1.159543307290002e-19
	-7.019348526525086e-17
	4.020567462758094e-13
	6.512800757387512e-11
	2.232394000284055e-12

 38	3.800000000000002e-01
	-8.472606250983466e-16
	1.250448475278706e-19
	-7.551072216918633e-17
	5.376166762151239e-13
	8.696626099383791e-11
	2.987671546543638e-12

 39	3.900000000000002e-01
	-8.404694400435475e-16
	1.348393100689141e-19
	-8.123408964714261e-17
	7.182835746245137e-13
	1.160059578650807e-10
	3.995663520544632e-12

 40	4.000000000000002e-01
	-8.336902426478914e-16
	1.453880089316465e-19
	-8.739217759733186e-17
	9.587475212742960e-13
	1.545576718502131e-10
	5.339419297408754e-12

 41	4.100000000000002e-01
	-8.269137024079910e-16
	1.567440843218796e-19
	-9.401517447506452e-17
	1.278315882024212e-12
	2.056399743244394e-10
	7.128485328871712e-12

 42	4.200000000000002e-01
	-8.201303275904186e-16
	1.689635837579056e-19
	-1.011348993360908e-16
	1.702279378121529e-12
	2.731794881064988e-10
	9.506948412786425e-12

 43	4.300000000000002e-01
	-8.133304586950445e-16
	1.821055019187188e-19
	-1.087848241625574e-16
	2.263640145953461e-12
	3.622591826253139e-10
	1.266371424250211e-11

 44	4.400000000000002e-01
	-8.065042651899561e-16
	1.962317984197250e-19
	-1.170000841882518e-16
	3.005277615436606e-12
	4.794226128637806e-10
	1.684554233378118e-11

 45	4.500000000000002e-01
	-7.996417460181809e-16
	2.114073887476147e-19
	-1.258174736579858e-16
	3.982634681130691e-12
	6.330411817828808e-10
	2.237343306777938e-11

 46	4.600000000000002e-01
	-7.927327344295955e-16
	2.277001030414012e-19
	-1.352754241700147e-16
	5.267009477443715e-12
	8.337498404446706e-10
	2.966302606653406e-11

 47	4.700000000000003e-01
	-7.857669077418318e-16
	2.451806068635300e-19
	-1.454139624670859e-16
	6.949534938608147e-12
	1.094953608853990e-09
	3.924970936249892e-11

 48	4.800000000000003e-01
	-7.787338026785922e-16
	2.639222775877274e-19
	-1.562746442746464e-16
	9.145916915600885e-12
	1.433402663953180e-09
	5.181914086647980e-11

 49	4.900000000000003e-01
	-7.716228369737931e-16
	2.840010295331513e-19
	-1.679004605298190e-16
	1.200197994900446e-11
	1.869827478577889e-09
	6.824383105361167e-11

 50	5.000000000000002e-01
	-7.644233379535580e-16
	3.054950805874844e-19
	-1.803357121530314e-16
	1.570003697853791e-11
	2.429617991591773e-09
	8.962631384900432e-11

 51	5.100000000000002e-01
	-7.571245788237993e-16
	3.284846527276171e-19
	-1.936258493512410e-16
	2.046605655503832e-11
	3.143523038499745e-09
	1.173492333237037e-10

 52	5.200000000000002e-01
	-7.497158248112922e-16
	3.530515938377589e-19
	-2.078169015381342e-16
	2.657755176206263e-11
	4.048338298749874e-09
	1.531323950093330e-10

 53	5.300000000000002e-01
	-7.421863856728557e-16
	3.792789263116810e-19
	-2.229563299754433e-16
	3.437207431082908e-11
	5.187557887495259e-09
	1.990965374769188e-10

 54	5.400000000000003e-01
	-7.345256777828043e-16
	4.072503085586158e-19
	-2.390916517405580e-16
	4.425616711886991e-11
	6.611950180708588e-09
	2.578332636171477e-10

 55	5.500000000000003e-01
	-7.267232993838573e-16
	4.370493908203025e-19
	-2.562704545351462e-16
	5.671462979325818e-11
	8.380056565804497e-09
	3.324803424276708e-10

 56	5.600000000000003e-01
	-7.187691151178573e-16
	4.687590733467672e-19
	-2.745400011946299e-16
	7.232001311418064e-11
	1.055862387704123e-08
	4.268016400641390e-10

 57	5.700000000000003e-01
	-7.106533514526768e-16
	5.024606579867719e-19
	-2.939467770099127e-16
	9.174237056300390e-11
	1.322302539060598e-08
	5.452712543273689e-10

 58	5.800000000000003e-01
	-7.023667029889506e-16
	5.382328903524697e-19
	-3.145359794203134e-16
	1.157594744564001e-10
	1.645777094077021e-08
	6.931622007087301e-10

 59	5.900000000000003e-01
	-6.939004493417918e-16
	5.761508920535206e-19
	-3.363509500583170e-16
	1.452679330132404e-10
	2.035725379823692e-08
	8.766412422929000e-10

 60	6.000000000000003e-01
	-6.852465819479804e-16
	6.162849853913070e-19
	-3.594325506963503e-16
	1.812958961650323e-10
	2.502692042746391e-08
	1.102873135720400e-09

 61	6.100000000000003e-01
	-6.763979397491633e-16
	6.586994163702986e-19
	-3.838184865143313e-16
	2.250182752266425e-10
	3.058507045641772e-08
	1.380139549877894e-09

 62	6.200000000000003e-01
	-6.673483522513648e-16
	7.034509859060320e-19
	-4.095425822637778e-16
	2.777755882334868e-10
	3.716549334866419e-08
	1.717980001904103e-09

 63	6.300000000000003e-01
	-6.580927879694535e-16
	7.505876036337221e-19
	-4.366340193183551e-16
	3.410976547983870e-10
	4.492112703977695e-08
	2.127364128204214e-09

 64	6.400000000000003e-01
	-6.486275057461233e-16
	8.001467836510551e-19
	-4.651165442172892e-16
	4.167333993334533e-10
	5.402889093781484e-08
	2.620906300931374e-09

 65	6.500000000000004e-01
	-6.389502059076094e-16
	8.521541067156448e-19
	-4.950076620457225e-16
	5.066880008258252e-10
	6.469581493973189e-08
	3.213134962569672e-09

 66	6.600000000000004e-01
	-6.290601777075201e-16
	9.066216786609664e-19
	-5.263178307454081e-16
	6.132685900389570e-10
	7.716657205644981e-08
	3.920830178183772e-09

 67	6.700000000000004e-01
	-6.189584390451972e-16
	9.635466198418767e-19
	-5.590496750739045e-16
	7.391396851606732e-10
	9.173253560690068e-08
	4.763444022072458e-09

 68	6.800000000000004e-01
	-6.086478640596847e-16
	1.022909624970660e-18
	-5.931972412693317e-16
	8.873896099322967e-10
	1.087425262998158e-07
	5.763619821825781e-09

 69	6.900000000000004e-01
	-5.981332939306081e-16
	1.084673636422519e-18
	-6.287453153531121e-16
	1.061609270312784e-09
	1.286154853098131e-07
	6.947828271761223e-09

 70	7.000000000000004e-01
	-5.874216260990945e-16
	1.148782676620936e-18
	-6.656688292282229e-16
	1.265984868900997e-09
	1.518553952305001e-07
	8.347141211320323e-09

 71	7.100000000000004e-01
	-5.765218771888632e-16
	1.215160886111465e-18
	-7.039323791242405e-16
	1.505406379192855e-09
	1.790688554968775e-07
	9.998167514759918e-09

 72	7.200000000000004e-01
	-5.654452151871945e-16
	1.283711813084858e-18
	-7.434898803423075e-16
	1.785593831980235e-09
	2.109857836859446e-07
	1.194417995346182e-08

 73	7.300000000000004e-01
	-5.542049569559563e-16
	1.354317997169767e-18
	-7.842843805385175e-16
	2.113243612707328e-09
	2.484837378862473e-07
	1.423646676889330e-08

 74	7.400000000000004e-01
	-5.428165278898508e-16
	1.426840885137372e-18
	-8.262480508855533e-16
	2.496196941098769e-09
	2.926163135708874e-07
	1.693594650341731e-08

 75	7.500000000000004e-01
	-5.312973815131958e-16
	1.501121108723625e-18
	-8.693023703675365e-16
	2.943632390652542e-09
	3.446459313737342e-07
	2.011508857875367e-08

 76	7.600000000000005e-01
	-5.196668779817002e-16
	1.576979145212719e-18
	-9.133585132734621e-16
	3.466283568861869e-09
	4.060810634283676e-07
	2.386018405884574e-08

 77	7.700000000000005e-01
	-5.079461217886364e-16
	1.654216370029412e-18
	-9.583179438248419e-16
	4.076681759171897e-09
	4.787175029015736e-07
	2.827400945928228e-08

 78	7.800000000000005e-01
	-4.961577604068885e-16
	1.732616497806049e-18
	-1.004073215049841e-15
	4.789421249771829e-09
	5.646826195871509e-07
	3.347891940246738e-08

 79	7.900000000000005e-01
	-4.843257470579520e-16
	1.811947394814808e-18
	-1.050508961820636e-15
	5.621442082646313e-09
	6.664806274635085e-07
	3.962038898435677e-08

 80	8.000000000000005e-01
	-4.724750722068798e-16
	1.891963231977126e-18
	-1.097503070772670e-15
	6.592320949339025e-09
	7.870357064024776e-07
	4.687100127501764e-08

 81	8.100000000000005e-01
	-4.606314696566227e-16
	1.972406934635351e-18
	-1.144928003025410e-15
	7.724555969719353e-09
	9.297284074069993e-07
	5.543483688965928e-08

 82	8.200000000000005e-01
	-4.488211041790000e-16
	2.053012873645853e-18
	-1.192652239617669e-15
	9.043825372158631e-09
	1.098419245162639e-06
	6.555216925135076e-08

 83	8.300000000000005e-01
	-4.370702484060860e-16
	2.133509732822743e-18
	-1.240541814718478e-15
	1.057919422355713e-08
	1.297451966281200e-06
	7.750430091055722e-08

 84	8.400000000000005e-01
	-4.254049571652631e-16
	2.213623480898286e-18
	-1.288461898268890e-15
	1.236323830033966e-08
	1.531628020267747e-06
	9.161829581096126e-08

 85	8.500000000000005e-01
	-4.138507475446496e-16
	2.293080372379221e-18
	-1.336278387955258e-15
	1.443205129262531e-08
	1.806143700832773e-06
	1.082712764083590e-07

 86	8.600000000000005e-01
	-4.024322927177442e-16
	2.371609901171197e-18
	-1.383859470403480e-15
	1.682510237738068e-08
	2.126482753141758e-06
	1.278938745182490e-07

 87	8.700000000000006e-01
	-3.911731369553935e-16
	2.448947633606574e-18
	-1.431077113196612e-15
	1.958491728665920e-08
	2.498260355028536e-06
	1.509723666886748e-07

 88	8.800000000000006e-01
	-3.800954383500856e-16
	2.524837853320007e-18
	-1.477808452621919e-15
	2.275656827404531e-08
	2.927019411535351e-06
	1.780490075825087e-07

 89	8.900000000000006e-01
	-3.692197446307034e-16
	2.599035958860214e-18
	-1.523937046717850e-15
	2.638697666856591e-08
	3.417986744813890e-06
	2.097201163904688e-07

 90	9.000000000000006e-01
	-3.585648061267411e-16
	2.671310565444115e-18
	-1.569353968909813e-15
	3.052405427345095e-08
	3.975804155997421e-06
	2.466315839695256e-07

 91	9.100000000000006e-01
	-3.481474285276280e-16
	2.741445274193771e-18
	-1.613958723941766e-15
	3.521573337178413e-08
	4.604256115134650e-06
	2.894716532461908e-07

 92	9.200000000000006e-01
	-3.379823666539490e-16
	2.809240084845076e-18
	-1.657659974554265e-15
	4.050895505983476e-08
	5.306020376089663e-06
	3.389610682258684e-07

 93	9.300000000000006e-01
	-3.280822590858660e-16
	2.874512440593439e-18
	-1.700376074066205e-15
	4.644869745768598e-08
	6.082468667492248e-06
	3.958409577263453e-07

 94	9.400000000000006e-01
	-3.184576022431566e-16
	2.937097905816318e-18
	-1.742035406358288e-15
	5.307712569134544e-08
	6.933540995408789e-06
	4.608590771846268e-07

 95	9.500000000000006e-01
	-3.091167614299894e-16
	2.996850488359863e-18
	-1.782576540459984e-15
	6.043293343494429e-08
	7.857709247595625e-06
	5.347552311430909e-07

 96	9.600000000000006e-01
	-3.000660154800381e-16
	3.053642627490106e-18
	-1.821948211801140e-15
	6.855092316383221e-08
	8.852035027089853e-06
	6.182468037480088e-07

 97	9.700000000000006e-01
	-2.913096309814543e-16
	3.107364876224277e-18
	-1.860109146075371e-15
	7.746184347444039e-08
	9.912315041973706e-06
	7.120153155976243e-07

 98	9.800000000000006e-01
	-2.828499616301052e-16
	3.157925312439906e-18
	-1.897027744512140e-15
	8.719247247703416e-08
	1.103329720043397e-05
	8.166948055959213e-07

 99	9.900000000000007e-01
	-2.746875680431029e-16
	3.205248716905456e-18
	-1.932681651176754e-15
	9.776591163075215e-08
	1.220894362388850e-05
	9.328626300297139e-07

 100	1.000000000000001e+00
	-2.668213533434067e-16
	3.249275558282043e-18
	-1.967057223770433e-15
	1.092020380808576e-07
	1.343271402376589e-05
	1.061033015785511e-06

 101	1.010000000000001e+00
	-2.592487099724142e-16
	3.289960825396599e-18
	-2.000148929391482e-15
	1.215180568921221e-07
	1.469784420226928e-05
	1.201653442528878e-06

 102	1.020000000000001e+00
	-2.519656734694809e-16
	3.327272745918983e-18
	-2.031958685973258e-15
	1.347290966904802e-07
	1.599759892234838e-05
	1.355103696582864e-06

 103	1.030000000000001e+00
	-2.449670793419100e-16
	3.361191428261141e-18
	-2.062495168782611e-15
	1.488488007863126e-07
	1.732548469425476e-05
	1.521697262291304e-06

 104	1.040000000000001e+00
	-2.382467196033277e-16
	3.391707460336469e-18
	-2.091773099594378e-15
	1.638898779363880e-07
	1.867541476243005e-05
	1.701684605968542e-06

 105	1.050000000000001e+00
	-2.317974960525929e-16
	3.418820495044390e-18
	-2.119812534097656e-15
	1.798645897959961e-07
	2.004182464236152e-05
	1.895257861617099e-06

 106	1.060000000000001e+00
	-2.256115678728782e-16
	3.442537848228824e-18
	-2.146638160869838e-15
	1.967851638030325e-07
	2.141974127449498e-05
	2.102556435969989e-06

 107	1.070000000000001e+00
	-2.196804916294352e-16
	3.462873130618624e-18
	-2.172278622988519e-15
	2.146641295620019e-07
	2.280481198065239e-05
	2.323673098019448e-06

 108	1.080000000000001e+00
	-2.139953522175961e-16
	3.479844931073283e-18
	-2.196765871132987e-15
	2.335145833659190e-07
	2.419330100911174e-05
	2.558660189221986e-06

 109	1.090000000000001e+00
	-2.085468837470285e-16
	3.493475564471632e-18
	-2.220134554928816e-15
	2.533503894666452e-07
	2.558206181985870e-05
	2.807535671142974e-06

 110	1.100000000000001e+00
	-2.033255797360674e-16
	3.503789893897740e-18
	-2.242421457363155e-15
	2.741863285480148e-07
	2.696849275263313e-05
	3.070288806851074e-06

 111	1.110000000000001e+00
	-1.983217923262882e-16
	3.510814233467705e-18
	-2.263664975379237e-15
	2.960382041491129e-07
	2.835048268823026e-05
	3.346885343942587e-06

 112	1.120000000000001e+00
	-1.935258205111000e-16
	3.514575335241659e-18
	-2.283904648264221e-15
	3.189229170792798e-07
	2.972635204802639e-05
	3.637272126947291e-06

 113	1.130000000000001e+00
	-1.889279876039562e-16
	3.515099461191744e-18
	-2.303180734180033e-15
	3.428585166163138e-07
	3.109479318796198e-05
	3.941381113826418e-06

 114	1.140000000000001e+00
	-1.845187083547248e-16
	3.512411539142390e-18
	-2.321533834147160e-15
	3.678642358189056e-07
	3.245481306397721e-05
	4.259132805810285e-06

 115	1.150000000000001e+00
	-1.802885462609755e-16
	3.506534399943564e-18
	-2.339004561963490e-15
	3.939605168335792e-07
	3.380568004537007e-05
	4.590439123425590e-06

 116	1.160000000000001e+00
	-1.762282617193216e-16
	3.497488091848581e-18
	-2.355633257906690e-15
	4.211690307628052e-07
	3.514687595383398e-05
	4.935205776164803e-06

 117	1.170000000000001e+00
	-1.723288517258367e-16
	3.485289267107991e-18
	-2.371459743607481e-15
	4.495126955438474e-07
	3.647805380242155e-05
	5.293334180853584e-06

 118	1.180000000000001e+00
	-1.685815818692664e-16
	3.469950635118283e-18
	-2.386523115170786e-15
	4.790156943827506e-07
	3.779900127733919e-05
	5.664722986227328e-06

 119	1.190000000000001e+00
	-1.649780113714313e-16
	3.451480476036565e-18
	-2.400861571438539e-15
	5.097034965826737e-07
	3.910960971627401e-05
	6.049269260104350e-06

 120	1.200000000000001e+00
	-1.615100119206788e-16
	3.429882208549909e-18
	-2.414512274210707e-15
	5.416028820760296e-07
	4.040984815907286e-05
	6.446869392109919e-06

 121	1.210000000000001e+00
	-1.581697803177500e-16
	3.405154015193242e-18
	-2.427511240331727e-15
	5.747419766809503e-07
	4.169974225934908e-05
	6.857419858891524e-06

 122	1.220000000000001e+00
	-1.549498498681674e-16
	3.377288460444481e-18
	-2.439893243887069e-15
	6.091502622711931e-07
	4.297935565344902e-05
	7.280817304294121e-06

 123	1.230000000000001e+00
	-1.518430904798187e-16
	3.346272241446890e-18
	-2.451691772577901e-15
	6.448586532588507e-07
	4.424877787105425e-05
	7.716959441786946e-06

 124	1.240000000000001e+00
	-1.488427124113594e-16
	3.312085871093699e-18
	-2.462938972180216e-15
	6.818995188856428e-07
	4.550811207460223e-05
	8.165744858594096e-06

 125	1.250000000000001e+00
	-1.459422633837259e-16
	3.274703433544622e-18
	-2.473665624349326e-15
	7.203067420367775e-07
	4.675746680873602e-05
	8.627073206899239e-06

 126	1.260000000000001e+00
	-1.431356239175237e-16
	3.234092348700287e-18
	-2.483901136013372e-15
	7.601157788254252e-07
	4.799694946971829e-05
	9.100845223475158e-06

 127	1.270000000000001e+00
	-1.404170006101857e-16
	3.190213150418128e-18
	-2.493673541389831e-15
	8.013637252481662e-07
	4.922666143690287e-05
	9.586962692606077e-06

 128	1.280000000000001e+00
	-1.377809177507673e-16
	3.143019273896699e-18
	-2.503009514615602e-15
	8.440893912519532e-07
	5.044669454820917e-05
	1.008532836729081e-05

 129	1.290000000000001e+00
	-1.352222076236238e-16
	3.092456847989226e-18
	-2.511934391185438e-15
	8.883333825996879e-07
	5.165712864966949e-05
	1.059584586077835e-05

 130	1.300000000000001e+00
	-1.327359998085089e-16
	3.038464488525739e-18
	-2.520472196589486e-15
	9.341381909807082e-07
	5.285802999256948e-05
	1.111841951801040e-05

 131	1.310000000000001e+00
	-1.303177097440696e-16
	2.980973089020982e-18
	-2.528645680726544e-15
	9.815482928821913e-07
	5.404945029006545e-05
	1.165295427447560e-05

 132	1.320000000000001e+00
	-1.279630267845931e-16
	2.919905605419052e-18
	-2.536476356842952e-15
	1.030610257816857e-06
	5.523142627846037e-05
	1.219935550827076e-05

 133	1.330000000000001e+00
	-1.256679019460937e-16
	2.855176831771591e-18
	-2.543984543907638e-15
	1.081372866591081e-06
	5.640397965680738e-05
	1.275752888976127e-05

 134	1.340000000000001e+00
	-1.234285355074809e-16
	2.786693163965114e-18
	-2.551189411480534e-15
	1.133887240396230e-06
	5.756711730260893e-05
	1.332738023209597e-05

 135	1.350000000000001e+00
	-1.212413646054442e-16
	2.714352348802101e-18
	-2.558109026264900e-15
	1.188206981614936e-06
	5.872083168153776e-05
	1.390881534490912e-05

 136	1.360000000000001e+00
	-1.191030509376493e-16
	2.638043215902392e-18
	-2.564760399654166e-15
	1.244388327355361e-06
	5.986510138584588e-05
	1.450173989281256e-05

 137	1.370000000000001e+00
	-1.170104686677135e-16
	2.557645390022812e-18
	-2.571159535691145e-15
	1.302490316860799e-06
	6.099989174987941e-05
	1.510605925969533e-05

 138	1.380000000000001e+00
	-1.149606926069534e-16
	2.473028981500776e-18
	-2.577321478952927e-15
	1.362574974091800e-06
	6.212515550234701e-05
	1.572167841939225e-05

 139	1.390000000000001e+00
	-1.129509867318718e-16
	2.384054252606646e-18
	-2.583260361958794e-15
	1.424707506945191e-06
	6.324083342406897e-05
	1.634850181292480e-05

 140	1.400000000000001e+00
	-1.109787930825058e-16
	2.290571257644917e-18
	-2.588989451772407e-15
	1.488956524762006e-06
	6.434685498722542e-05
	1.698643323224549e-05

 141	1.410000000000001e+00
	-1.090417210749788e-16
	2.192419454677779e-18
	-2.594521195533801e-15
	1.555394275986058e-06
	6.544313895789969e-05
	1.763537571020297e-05

 142	1.420000000000001e+00
	-1.071375372514730e-16
	2.089427286753677e-18
	-2.599867264712637e-15
	1.624096908071849e-06
	6.652959394826889e-05
	1.829523141629201e-05

 143	1.430000000000001e+00
	-1.052641554824339e-16
	1.981411730514013e-18
	-2.605038597922103e-15
	1.695144752005930e-06
	6.760611890830242e-05
	1.896590155762883e-05

 144	1.440000000000001e+00
	-1.034196276286653e-16
	1.868177810021048e-18
	-2.610045442174151e-15
	1.768622634106138e-06
	6.867260354951172e-05
	1.964728628450978e-05

 145	1.450000000000001e+00
	-1.016021346651521e-16
	1.749518073602298e-18
	-2.614897392491668e-15
	1.844620218100734e-06
	6.972892869527177e-05
	2.033928459984395e-05

 146	1.460000000000001e+00
	-9.980997826358969e-17
	1.625212031442431e-18
	-2.619603429822884e-15
	1.923232380870571e-06
	7.077496655365129e-05
	2.104179427170406e-05

 147	1.470000000000001e+00
	-9.804157282674187e-17
	1.495025551571018e-18
	-2.624171957227945e-15
	2.004559625666979e-06
	7.181058090963552e-05
	2.175471174820544e-05

 148	1.480000000000001e+00
	-9.629543796462452e-17
	1.358710211800474e-18
	-2.628610834328381e-15
	2.088708537101246e-06
	7.283562723418845e-05
	2.247793207389274e-05

 149	1.490000000000001e+00
	-9.457019140009976e-17
	1.216002605055824e-18
	-2.632927410026979e-15
	2.175792282745753e-06
	7.384995270785479e-05
	2.321134880679268e-05

 150	1.500000000000001e+00
	-9.286454228961323e-17
	1.066623595415823e-18
	-2.637128553519414e-15
	2.265931166796484e-06
	7.485339615658052e-05
	2.395485393526454e-05

 151	1.510000000000001e+00
	-9.117728494347075e-17
	9.102775220466350e-19
	-2.641220683630060e-15
	2.359253241930285e-06
	7.584578789721042e-05
	2.470833779376060e-05

 152	1.520000000000001e+00
	-8.950729292906129e-17
	7.466513480618007e-19
	-2.645209796513047e-15
	2.455894986251571e-06
	7.682694948969652e-05
	2.547168897657710e-05

 153	1.530000000000001e+00
	-8.785351353991450e-17
	5.754137511811446e-19
	-2.649101491766305e-15
	2.556002053069291e-06
	7.779669339248666e-05
	2.624479424864642e-05

 154	1.540000000000001e+00
	-8.621496261307431e-17
	3.962141528913445e-19
	-2.652900997011376e-15
	2.659730102178846e-06
	7.875482251686237e-05
	2.702753845238267e-05

 155	1.550000000000001e+00
	-8.459071967727417e-17
	2.086816826302390e-19
	-2.656613190995192e-15
	2.767245722346103e-06
	7.970112967517725e-05
	2.781980440954253e-05

 156	1.560000000000001e+00
	-8.297992341445943e-17
	1.242407332731346e-20
	-2.660242625272428e-15
	2.878727455801717e-06
	8.063539691706332e-05
	2.862147281701640e-05

 157	1.570000000000001e+00
	-8.138176741750707e-17
	-1.929735155641913e-19
	-2.663793544528269e-15
	2.994366936742198e-06
	8.155739474669264e-05
	2.943242213539078e-05

 158	1.580000000000001e+00
	-7.979549622734397e-17
	-4.079497516119301e-19
	-2.667269905601910e-15
	3.114370157088031e-06
	8.246688121319757e-05
	3.025252846905729e-05

 159	1.590000000000001e+00
	-7.822040163319159e-17
	-6.329684638052378e-19
	-2.670675395270867e-15
	3.238958874038420e-06
	8.336360086534477e-05
	3.108166543655499e-05

 160	1.600000000000001e+00
	-7.665581922018921e-17
	-8.685200623047018e-19
	-2.674013446855372e-15
	3.368372175246050e-06
	8.424728356061048e-05
	3.191970402973925e-05

 161	1.610000000000001e+00
	-7.510112514926251e-17
	-1.115123048249550e-18
	-2.677287255700903e-15
	3.502868218650619e-06
	8.511764311797308e-05
	3.276651246027097e-05

 162	1.620000000000001e+00
	-7.355573315477736e-17
	-1.373325618549411e-18
	-2.680499793595214e-15
	3.642726165062236e-06
	8.597437580310175e-05
	3.362195599180302e-05

 163	1.630000000000001e+00
	-7.201909174613701e-17
	-1.643707370801376e-18
	-2.683653822174500e-15
	3.788248322349749e-06
	8.681715863432871e-05
	3.448589675613465e-05

 164	1.640000000000001e+00
	-7.049068160021496e-17
	-1.926881113683258e-18
	-2.686751905371063e-15
	3.939762520380809e-06
	8.764564749796947e-05
	3.535819355148077e-05

 165	1.650000000000001e+00
	-6.897001313217303e-17
	-2.223494788375725e-18
	-2.689796420952759e-15
	4.097624735442543e-06
	8.845947506245456e-05
	3.623870162089582e-05

 166	1.660000000000001e+00
	-6.745662423289818e-17
	-2.534233506755421e-18
	-2.692789571202087e-15
	4.262221981421002e-06
	8.925824848261684e-05
	3.712727240879859e-05

 167	1.670000000000001e+00
	-6.595007816198506e-17
	-2.859821712272373e-18
	-2.695733392780399e-15
	4.433975482111981e-06
	9.004154688869728e-05
	3.802375329346408e-05

 168	1.680000000000001e+00
	-6.444996158582982e-17
	-3.201025469577099e-18
	-2.698629765820330e-15
	4.613344134141410e-06
	9.080891865966734e-05
	3.892798729332608e-05

 169	1.690000000000001e+00
	-6.295588275107480e-17
	-3.558654889080645e-18
	-2.701480422287067e-15
	4.800828262407072e-06
	9.155987848785747e-05
	3.983981274496084e-05

 170	1.700000000000001e+00
	-6.146746978424127e-17
	-3.933566692718880e-18
	-2.704286953646715e-15
	4.996973658884945e-06
	9.229390425231980e-05
	4.075906295073866e-05

 171	1.710000000000001e+00
	-5.998436910902050e-17
	-4.326666927229684e-18
	-2.707050817877747e-15
	5.202375880076925e-06
	9.301043373265373e-05
	4.168556579438183e-05

 172	1.720000000000001e+00
	-5.850624397327990e-17
	-4.738913831238060e-18
	-2.709773345859064e-15
	5.417684757156888e-06
	9.370886121405503e-05
	4.261914332306248e-05

 173	1.730000000000001e+00
	-5.703277307839238e-17
	-5.171320862363899e-18
	-2.712455747166246e-15
	5.643609044740418e-06
	9.438853405911871e-05
	4.355961129531222e-05

 174	1.740000000000001e+00
	-5.556364930405763e-17
	-5.624959890406429e-18
	-2.715099115305242e-15
	5.880921097852093e-06
	9.504874935334929e-05
	4.450677869491383e-05

 175	1.750000000000001e+00
	-5.409857852231097e-17
	-6.100964562407487e-18
	-2.717704432410914e-15
	6.130461420916271e-06
	9.568875077021536e-05
	4.546044721220635e-05

 176	1.760000000000001e+00