Title: **.subckt gm_id_nmos
Date: Sat Jun 12 17:25:08  2021
Plotname: DC transfer characteristic
Flags: real
No. Variables: 8
No. Points: 181
Variables:
	0	v(v-sweep)	voltage
	1	@m.xm1.msky130_fd_pr__nfet_01v8_lvt[cgb]	capacitance
	2	@m.xm1.msky130_fd_pr__nfet_01v8_lvt[cgd]	capacitance
	3	@m.xm1.msky130_fd_pr__nfet_01v8_lvt[cgs]	capacitance
	4	@m.xm1.msky130_fd_pr__nfet_01v8_lvt[gds]	admittance
	5	@m.xm1.msky130_fd_pr__nfet_01v8_lvt[gm]	admittance
	6	i(@m.xm1.msky130_fd_pr__nfet_01v8_lvt[id])	current
	7	v(@m.xm1.msky130_fd_pr__nfet_01v8_lvt[vth])	voltage
Values:
 0	0.000000000000000e+00
	-2.089723034809680e-16
	4.867402892232669e-19
	-2.573550857020925e-17
	1.564641846748040e-12
	3.377444808317574e-11
	1.420671750150482e-12
	5.831173769968007e-01

 1	1.000000000000000e-02
	-2.075907120619596e-16
	5.172854226328070e-19
	-2.730442803587995e-17
	1.983896005814130e-12
	4.283615484914212e-11
	1.801932231606155e-12
	5.831173769968283e-01

 2	2.000000000000000e-02
	-2.062138135823295e-16
	5.495882424413104e-19
	-2.896208076487399e-17
	2.515449613720505e-12
	5.432805947122581e-11
	2.285480323086311e-12
	5.831173769968714e-01

 3	3.000000000000000e-02
	-2.048407182908194e-16
	5.837313968944621e-19
	-3.071253180995911e-17
	3.189364782704023e-12
	6.890144521960561e-11
	2.898745781533251e-12
	5.831173769969219e-01

 4	4.000000000000000e-02
	-2.034705549568915e-16
	6.197992473244001e-19
	-3.255992267641752e-17
	4.043743501123925e-12
	8.738194220818684e-11
	3.676508545941553e-12
	5.831173769969858e-01

 5	5.000000000000000e-02
	-2.021024730838461e-16
	6.578776176161305e-19
	-3.450845834621181e-17
	5.126874581740926e-12
	1.108161165810875e-10
	4.662865985202506e-12
	5.831173769970666e-01

 6	6.000000000000000e-02
	-2.007356454379618e-16
	6.980535010022177e-19
	-3.656239220566691e-17
	6.499952539513950e-12
	1.405304739306909e-10
	5.913725675731413e-12
	5.831173769971689e-01

 7	7.000000000000001e-02
	-1.993692708988235e-16
	7.404147212841269e-19
	-3.872600874277068e-17
	8.240520166423211e-12
	1.782061698016606e-10
	7.499963674020824e-12
	5.831173769972992e-01

 8	8.000000000000000e-02
	-1.980025776326358e-16
	7.850495457856750e-19
	-4.100360389167803e-17
	1.044682659326900e-11
	2.259735871614075e-10
	9.511425345702409e-12
	5.831173769974638e-01

 9	9.000000000000000e-02
	-1.966348265862543e-16
	8.320462476434427e-19
	-4.339946291806063e-17
	1.324334309881351e-11
	2.865320333257214e-10
	1.206199266452844e-11
	5.831173769976731e-01

 10	9.999999999999999e-02
	-1.952653152948626e-16
	8.814926154417975e-19
	-4.591783576009853e-17
	1.678774252747561e-11
	3.633011845644450e-10
	1.529600103482489e-11
	5.831173769979381e-01

 11	1.100000000000000e-01
	-1.938933819906511e-16
	9.334754087173052e-19
	-4.856290976664189e-17
	2.127972826015832e-11
	4.606126372185908e-10
	1.939636329628059e-11
	5.831173769982746e-01

 12	1.200000000000000e-01
	-1.925184099935065e-16
	9.880797584990033e-19
	-5.133877980687752e-17
	2.697219942967125e-11
	5.839520988767270e-10
	2.459485261925374e-11
	5.831173769987009e-01

 13	1.300000000000000e-01
	-1.911398323576214e-16
	1.045388512825101e-18
	-5.424941576501507e-17
	3.418536568577267e-11
	7.402654826968319e-10
	3.118511446689953e-11
	5.831173769992412e-01

 14	1.400000000000000e-01
	-1.897571367401155e-16
	1.105481528089007e-18
	-5.729862747932059e-17
	4.332458375470916e-11
	9.383455892738301e-10
	3.953912689642765e-11
	5.831173769999262e-01

 15	1.500000000000000e-01
	-1.883698704492996e-16
	1.168434908120051e-18
	-6.049002723729196e-17
	5.490288730027227e-11
	1.189320342376572e-09
	5.012801592819658e-11
	5.831173770007942e-01

 16	1.600000000000000e-01
	-1.869776456212365e-16
	1.234320194094692e-18
	-6.382698999771434e-17
	6.956943104451974e-11
	1.507268894760590e-09
	6.354836813618131e-11
	5.831173770018944e-01

 17	1.700000000000000e-01
	-1.855801444639179e-16
	1.303203509695085e-18
	-6.731261157533260e-17
	8.814538187506062e-11
	1.909998591615795e-09
	8.055547791143904e-11
	5.831173770032888e-01

 18	1.800000000000000e-01
	-1.841771244988657e-16
	1.375144667369545e-18
	-7.094966509416459e-17
	1.116691785991224e-10
	2.420024080431957e-09
	1.021053367289538e-10
	5.831173770050558e-01

 19	1.900000000000000e-01
	-1.827684237205704e-16
	1.450196243083393e-18
	-7.474055608998455e-17
	1.414535661866266e-10
	3.065800160131301e-09
	1.294076343129597e-10
	5.831173770072942e-01

 20	2.000000000000000e-01
	-1.813539655851624e-16
	1.528402628550320e-18
	-7.868727671976467e-17
	1.791574116780102e-10
	3.883272717260937e-09
	1.639926190479505e-10
	5.831173770101294e-01

 21	2.100000000000000e-01
	-1.799337637314399e-16
	1.609799071567405e-18
	-8.279135961402930e-17
	2.268760537712091e-10
	4.917827836865562e-09
	2.077953844251032e-10
	5.831173770137211e-01

 22	2.200000000000001e-01
	-1.785079263302230e-16
	1.694410716696793e-18
	-8.705383198492104e-17
	2.872548579100326e-10
	6.226738531039608e-09
	2.632620426634771e-10
	5.831173770182684e-01

 23	2.300000000000001e-01
	-1.770766599523710e-16
	1.782251660091188e-18
	-9.147517067569540e-17
	3.636317807017929e-10
	7.882232236009849e-09
	3.334833556507605e-10
	5.831173770240257e-01

 24	2.400000000000001e-01
	-1.756402728421380e-16
	1.873324033689922e-18
	-9.605525890345991e-17
	4.602161352733574e-10
	9.975331139177785e-09
	4.223627646889084e-10
	5.831173770313122e-01

 25	2.500000000000001e-01
	-1.741991774812305e-16
	1.967617135251723e-18
	-1.007933455030469e-16
	5.823124430911062e-10
	1.262065247725388e-08
	5.348274509680044e-10
	5.831173770405330e-01

 26	2.600000000000001e-01
	-1.727538923304216e-16
	2.065106621672126e-18
	-1.056880075227201e-16
	7.366003151218329e-10
	1.596239827432991e-08
	6.770931352236030e-10
	5.831173770521969e-01

 27	2.700000000000001e-01
	-1.713050426401738e-16
	2.165753783687371e-18
	-1.107371170485808e-16
	9.314837899543596e-10
	2.018181474290041e-08
	8.569958659547814e-10
	5.831173770669470e-01

 28	2.800000000000001e-01
	-1.698533602297486e-16
	2.269504920326495e-18
	-1.159378131409719e-16
	1.177526538322907e-09
	2.550646200486053e-08
	1.084407141376514e-09
	5.831173770855913e-01

 29	2.900000000000001e-01
	-1.683996821458914e-16
	2.376290831277448e-18
	-1.212864797499702e-16
	1.487992895952850e-09
	3.222170619287851e-08
	1.371752464183848e-09
	5.831173771091499e-01

 30	3.000000000000001e-01
	-1.669449481274680e-16
	2.486026444630842e-18
	-1.267787304359680e-16
	1.879518884247801e-09
	4.068492963781538e-08
	1.734657956315183e-09
	5.831173771389031e-01

 31	3.100000000000001e-01
	-1.654901968212806e-16
	2.598610596218520e-18
	-1.324094006537032e-16
	2.372942291880763e-09
	5.134305192553277e-08
	2.192755091681466e-09
	5.831173771764614e-01

 32	3.200000000000001e-01
	-1.640365607165021e-16
	2.713925974954845e-18
	-1.381725482632665e-16
	2.994326580823410e-09
	6.475406615784937e-08
	2.770680077960450e-09
	5.831173772238435e-01

 33	3.300000000000001e-01
	-1.625852597903009e-16
	2.831839246217495e-18
	-1.440614628098863e-16
	3.776219890809803e-09
	8.161342161870376e-08
	3.499312083153749e-09
	5.831173772835817e-01

 34	3.400000000000001e-01
	-1.611375938847224e-16
	2.952201362398101e-18
	-1.500686839672411e-16
	4.759197762115853e-09
	1.027862268689825e-07
	4.417303515170198e-09
	5.831173773588449e-01

 35	3.500000000000001e-01
	-1.596949338639918e-16
	3.074848066361605e-18
	-1.561860293693864e-16
	5.993746354792881e-09
	1.293464066178170e-07
	5.572966085503725e-09
	5.831173774535942e-01

 36	3.600000000000002e-01
	-1.582587116312378e-16
	3.199600589753926e-18
	-1.624046318681245e-16
	7.542551840872301e-09
	1.626241222844319e-07
	7.026588589483615e-09
	5.831173775727719e-01

 37	3.700000000000002e-01
	-1.568304091132014e-16
	3.326266543991240e-18
	-1.687149860509079e-16
	9.483271154367261e-09
	2.042629614836958e-07
	8.853276394564893e-09
	5.831173777225361e-01

 38	3.800000000000002e-01
	-1.554115463497394e-16
	3.454640997472853e-18
	-1.751070036452767e-16
	1.191186920995492e-08
	2.562886190064527e-07
	1.114641874653434e-08
	5.831173779105437e-01

 39	3.900000000000002e-01
	-1.540036688507699e-16
	3.584507728222769e-18
	-1.815700772262637e-16
	1.494661779443508e-08
	3.211910377391422e-07
	1.402190843059545e-08
	5.831173781462955e-01

 40	4.000000000000002e-01
	-1.526083344056964e-16
	3.715640636931989e-18
	-1.880931514404985e-16
	1.873286129989697e-08
	4.020222641783686e-07
	1.762325939900631e-08
	5.831173784415589e-01

 41	4.100000000000002e-01
	-1.512270995483319e-16
	3.847805301398630e-18
	-1.946648007723565e-16
	2.344866398626613e-08
	5.025126192448375e-07
	2.212779219265695e-08
	5.831173788108716e-01

 42	4.200000000000002e-01
	-1.498615058931270e-16
	3.980760649794800e-18
	-2.012733127105614e-16
	2.931146221835024e-08
	6.272082204399750e-07
	2.775408507720570e-08
	5.831173792721532e-01

 43	4.300000000000002e-01
	-1.485130665654589e-16
	4.114260727167122e-18
	-2.079067750347448e-16
	3.658585281339731e-08
	7.816334563609900e-07
	3.477092187087526e-08
	5.831173798474414e-01

 44	4.400000000000002e-01
	-1.471832529495076e-16
	4.248056527218906e-18
	-2.145531658360436e-16
	4.559265491541950e-08
	9.724827579402504e-07
	4.350800699611361e-08
	5.831173805637671e-01

 45	4.500000000000002e-01
	-1.458734819716907e-16
	4.381897859819789e-18
	-2.212004448180652e-16
	5.671938712911432e-08
	1.207846980377763e-06
	5.436876637111150e-08
	5.831173814542063e-01

 46	4.600000000000002e-01
	-1.445851041259197e-16
	4.515535223904095e-18
	-2.278366443971333e-16
	7.043230285060436e-08
	1.497480931830133e-06
	6.784561179379733e-08
	5.831173825591300e-01

 47	4.700000000000003e-01
	-1.433193924294810e-16
	4.648721655478883e-18
	-2.344499591344946e-16
	8.729012235812884e-08
	1.853120026116515e-06
	8.453811888891550e-08
	5.831173839276957e-01

 48	4.800000000000003e-01
	-1.420775324758074e-16
	4.781214521358231e-18
	-2.410288320873602e-16
	1.079595853175329e-07
	2.288855543360664e-06
	1.051746560423885e-07
	5.831173856196192e-01

 49	4.900000000000003e-01
	-1.408606137236396e-16
	4.912777230926775e-18
	-2.475620367576860e-16
	1.332329127984161e-07
	2.821579195082757e-06
	1.306381031055215e-07
	5.831173877072865e-01

 50	5.000000000000002e-01
	-1.396696221321191e-16
	5.043180840637882e-18
	-2.540387534434931e-16
	1.640471983603524e-07
	3.471507938127974e-06
	1.619964080248787e-07
	5.831173902782538e-01

 51	5.100000000000002e-01
	-1.385054342193202e-16
	5.172205528965472e-18
	-2.604486389518900e-16
	2.015056197255622e-07
	4.262798177866575e-06
	2.005388322412417e-07
	5.831173934382241e-01

 52	5.200000000000002e-01
	-1.373688125887924e-16
	5.299641923029962e-18
	-2.667818888095859e-16
	2.469001432547135e-07
	5.224253077257307e-06
	2.478188037474956e-07
	5.831173973145588e-01

 53	5.300000000000002e-01
	-1.362604029359921e-16
	5.425292261968219e-18
	-2.730292912985936e-16
	3.017350423605918e-07
	6.390115638467173e-06
	3.057042841700897e-07
	5.831174020604047e-01

 54	5.400000000000003e-01
	-1.351807325151104e-16
	5.548971386170440e-18
	-2.791822728449240e-16
	3.677500257325158e-07
	7.800921342877783e-06
	3.764363958491195e-07
	5.831174078595048e-01

 55	5.500000000000003e-01
	-1.341302100177203e-16
	5.670507545618173e-18
	-2.852329344893220e-16
	4.469410399462042e-07
	9.504355548786118e-06
	4.626966583658044e-07
	5.831174149317087e-01

 56	5.600000000000003e-01
	-1.331091267886548e-16
	5.789743024591145e-18
	-2.911740793649050e-16
	5.415758725016327e-07
	1.155602188565010e-05
	5.676824494430072e-07
	5.831174235391583e-01

 57	5.700000000000003e-01
	-1.321176592822173e-16
	5.906534583841538e-18
	-2.969992312910320e-16
	6.542005917424472e-07
	1.401998027149208e-05
	6.951891349628809e-07
	5.831174339930238e-01

 58	5.800000000000003e-01
	-1.311558726436500e-16
	6.020753724857826e-18
	-3.027026447609331e-16
	7.876317612855376e-07
	1.696886231244690e-05
	8.496956439303560e-07
	5.831174466605185e-01

 59	5.900000000000003e-01
	-1.302237252869493e-16
	6.132286783970537e-18
	-3.082793067485825e-16
	9.449285056930891e-07
	2.048332774708313e-05
	1.036448110110665e-06
	5.831174619717554e-01

 60	6.000000000000003e-01
	-1.293210743306955e-16
	6.241034866727256e-18
	-3.137249308852601e-16
	1.129338230130181e-06
	2.465060292912689e-05
	1.261533700354705e-06
	5.831174804258005e-01

 61	6.100000000000003e-01
	-1.284476817484076e-16
	6.346913635143208e-18
	-3.190359446564431e-16
	1.344210517892718e-06
	2.956185873697577e-05
	1.531934201572188e-06
	5.831175025950689e-01

 62	6.200000000000003e-01
	-1.276032210887994e-16
	6.449852962100550e-18
	-3.242094703445719e-16
	1.592875821722792e-06
	3.530825760940394e-05
	1.855546821701290e-06
	5.831175291270256e-01

 63	6.300000000000003e-01
	-1.267872846237928e-16
	6.549796468325458e-18
	-3.292433004930858e-16
	1.878489234914807e-06
	4.197563797080723e-05
	2.241158593968327e-06
	5.831175607420899e-01

 64	6.400000000000003e-01
	-1.259993907877939e-16
	6.646700958040327e-18
	-3.341358686932834e-16
	2.203844761860713e-06
	4.963800635772756e-05
	2.698361420504756e-06
	5.831175982266691e-01

 65	6.500000000000004e-01
	-1.252389917799899e-16
	6.740535769604540e-18
	-3.388862164998861e-16
	2.571171550153526e-06
	5.835025191611731e-05
	3.237397696623025e-06
	5.831176424205008e-01

 66	6.600000000000004e-01
	-1.245054812117433e-16
	6.831282057272645e-18
	-3.434939572663364e-16
	2.981929483084749e-06
	6.814074375802276e-05
	3.868931854796832e-06
	5.831176941979245e-01

 67	6.700000000000004e-01
	-1.237982016929552e-16
	6.918932019670780e-18
	-3.479592376597533e-16
	3.436626020433937e-06
	7.900466353253292e-05
	4.603750802960968e-06
	5.831177544433180e-01

 68	6.800000000000004e-01
	-1.231164522639956e-16
	7.003488089785652e-18
	-3.522826975713649e-16
	3.934677842796904e-06
	9.089900556614655e-05
	5.452405271074739e-06
	5.831178240216957e-01

 69	6.900000000000004e-01
	-1.224594955929527e-16
	7.084962100239055e-18
	-3.564654290843389e-16
	4.474338695724333e-06
	1.037401014681849e-04
	6.424813166519780e-06
	5.831179037461864e-01

 70	7.000000000000004e-01
	-1.218265648711061e-16
	7.163374436446531e-18
	-3.605089351003188e-16
	5.052708595772270e-06
	1.174042824238112e-04
	7.529853522819188e-06
	5.831179943447421e-01

 71	7.100000000000004e-01
	-1.212168703523015e-16
	7.238753188986373e-18
	-3.644150881613707e-16
	5.665829977738215e-06
	1.317319084082548e-04
	8.774983929615363e-06
	5.831180964287755e-01

 72	7.200000000000004e-01
	-1.206296054940559e-16
	7.311133315180955e-18
	-3.681860899377373e-16
	6.308865068340189e-06
	1.465345357707835e-04
	1.016591435692203e-05
	5.831182104664131e-01

 73	7.300000000000004e-01
	-1.200639526695306e-16
	7.380555818554783e-18
	-3.718244317855651e-16
	6.976337945145853e-06
	1.616045531906590e-04
	1.170636573634674e-05
	5.831183367627070e-01

 74	7.400000000000004e-01
	-1.195190884298771e-16
	7.447066953511370e-18
	-3.753328567140236e-16
	7.662416528009308e-06
	1.767262807547758e-04
	1.339793316107270e-05
	5.831184754484148e-01

 75	7.500000000000004e-01
	-1.189941883057929e-16
	7.510717461288145e-18
	-3.787143230389278e-16
	8.361205687192391e-06
	1.916873627276170e-04
	1.524006253171350e-05
	5.831186264780893e-01

 76	7.600000000000005e-01
	-1.184884311454115e-16
	7.571561842022659e-18
	-3.819719699409397e-16
	9.067023270093634e-06
	2.062893146219322e-04
	1.723013777209055e-05
	5.831187896372265e-01

 77	7.700000000000005e-01
	-1.180010029928604e-16
	7.629657666610836e-18
	-3.851090850912252e-16
	9.774635611551080e-06
	2.203562875516232e-04
	1.936366523529035e-05
	5.831189645573864e-01

 78	7.800000000000005e-01
	-1.175311005179726e-16
	7.685064930971693e-18
	-3.881290744566687e-16
	1.047943664820485e-05
	2.337414309074424e-04
	2.163453407746601e-05
	5.831191507375406e-01

 79	7.900000000000005e-01
	-1.170779340127538e-16
	7.737845454363639e-18
	-3.910354343507834e-16
	1.117756338257535e-05
	2.463305955470915e-04
	2.403532699228025e-05
	5.831193475695489e-01

 80	8.000000000000005e-01
	-1.166407299743072e-16
	7.788062322534698e-18
	-3.938317257557144e-16
	1.186594851551002e-05
	2.580434554421089e-04
	2.655765484938609e-05
	5.831195543655949e-01

 81	8.100000000000005e-01
	-1.162187332970817e-16
	7.835779375735992e-18
	-3.965215509053607e-16
	1.254231741210216e-05
	2.688323865584127e-04
	2.919249094370436e-05
	5.831197703855912e-01

 82	8.200000000000005e-01
	-1.158112091006404e-16
	7.881060740870757e-18
	-3.991085087951021e-16
	1.320514060686337e-05
	2.786795907947787e-04
	3.193048483970066e-05
	5.831199948629106e-01

 83	8.300000000000005e-01
	-1.154174443083200e-16
	7.923970397082170e-18
	-4.015960651664889e-16
	1.385355462910176e-05
	2.875929879528792e-04
	3.476224053788319e-05
	5.831202270271915e-01

 84	8.400000000000005e-01
	-1.150367486879331e-16
	7.964571808070219e-18
	-4.039880057756756e-16
	1.448726437721907e-05
	2.956018057734554e-04
	3.767855215303545e-05
	5.831204661236614e-01

 85	8.500000000000005e-01
	-1.146684557244649e-16
	8.002927580263689e-18
	-4.062879072367192e-16
	1.510643763107396e-05
	3.027514567034476e-04
	4.067059106948578e-05
	5.831207114284807e-01

 86	8.600000000000005e-01
	-1.143119233205738e-16
	8.039099149577814e-18
	-4.084993020796089e-16
	1.571160057085091e-05
	3.090989865852400e-04
	4.373004472213117e-05
	5.831209622601204e-01

 87	8.700000000000006e-01
	-1.139665342020894e-16
	8.073146510608508e-18
	-4.106256673679954e-16
	1.630354085446941e-05
	3.147088778908702e-04
	4.684921143862855e-05
	5.831212179871389e-01

 88	8.800000000000006e-01
	-1.136316961189403e-16
	8.105127978553145e-18
	-4.126704149423505e-16
	1.688322207948206e-05
	3.196494475382519e-04
	5.002105621622032e-05
	5.831214780327530e-01

 89	8.900000000000006e-01
	-1.133068418657878e-16
	8.135099981370137e-18
	-4.146368831657917e-16
	1.745171156375186e-05
	3.239898997142757e-04
	5.323923374396145e-05
	5.831217418767265e-01

 90	9.000000000000006e-01
	-1.129914291452139e-16
	8.163116879679319e-18
	-4.165283300503986e-16
	1.801012184885383e-05
	3.277980294004327e-04
	5.649808524274186e-05
	5.831220090551112e-01

 91	9.100000000000006e-01
	-1.126849402947932e-16
	8.189230811931150e-18
	-4.183479276441181e-16
	1.855956526408435e-05
	3.311385284977396e-04
	5.979261541646453e-05
	5.831222791583562e-01

 92	9.200000000000006e-01
	-1.123868818977844e-16
	8.213491562428109e-18
	-4.200987575619816e-16
	1.910112022990248e-05
	3.340718207386802e-04
	6.311845518441779e-05
	5.831225518282520e-01

 93	9.300000000000006e-01
	-1.120967842955831e-16
	8.235946449858806e-18
	-4.217838075499968e-16
	1.963580764509404e-05
	3.366533400809023e-04
	6.647181505914895e-05
	5.831228267541099e-01

 94	9.400000000000006e-01
	-1.118142010184782e-16
	8.256640234099709e-18
	-4.234059689754589e-16
	2.016457560533590e-05
	3.389331660188313e-04
	6.984943316798567e-05
	5.831231036684974e-01

 95	9.500000000000006e-01
	-1.115387081497104e-16
	8.275615039145681e-18
	-4.249680351433352e-16
	2.068829076397665e-05
	3.409559346800364e-04
	7.324852107380640e-05
	5.831233823427986e-01

 96	9.600000000000006e-01
	-1.112699036363284e-16
	8.292910290145136e-18
	-4.264727003446259e-16
	2.120773480489486e-05
	3.427609538318860e-04
	7.666670978368661e-05
	5.831236625827861e-01

 97	9.700000000000006e-01
	-1.110074065589117e-16
	8.308562662634627e-18
	-4.279225595490115e-16
	2.172360470410303e-05
	3.443824608818741e-04
	8.010199766961159e-05
	5.831239442243521e-01

 98	9.800000000000006e-01
	-1.107508563708847e-16
	8.322606042189162e-18
	-4.293201086605638e-16
	2.223651567765493e-05
	3.458499741481090e-04
	8.355270147273735e-05
	5.831242271294905e-01

 99	9.900000000000007e-01
	-1.104999121168811e-16
	8.335071492825156e-18
	-4.306677452616988e-16
	2.274700592668370e-05
	3.471886981864486e-04
	8.701741111901730e-05
	5.831245111825931e-01

 100	1.000000000000001e+00
	-1.102542516384459e-16
	8.345987232611670e-18
	-4.319677697768037e-16
	2.325554248352557e-05
	3.484199532826464e-04
	9.049494872975850e-05
	5.831247962870886e-01

 101	1.010000000000001e+00
	-1.100135707742818e-16
	8.355378615060700e-18
	-4.332223869930293e-16
	2.376252762992372e-05
	3.495616071391189e-04
	9.398433195269205e-05
	5.831250823624353e-01

 102	1.020000000000001e+00
	-1.097775825612514e-16
	8.363268114977412e-18
	-4.344337078815329e-16
	2.426830549769723e-05
	3.506284932860106e-04
	9.748474155318285e-05
	5.831253693414663e-01

 103	1.030000000000001e+00
	-1.095460164414473e-16
	8.369675317555552e-18
	-4.356037516679510e-16
	2.477316857516814e-05
	3.516328059201453e-04
	1.009954930774993e-04
	5.831256571680642e-01

 104	1.040000000000001e+00
	-1.093186174798179e-16
	8.374616909601922e-18
	-4.367344481060917e-16
	2.527736393170848e-05
	3.525844648783411e-04
	1.045160123180555e-04
	5.831259457951495e-01

 105	1.050000000000001e+00
	-1.090951455961062e-16
	8.378106671865019e-18
	-4.378276399136666e-16
	2.578109904131865e-05
	3.534914474617117e-04
	1.080458142634496e-04
	5.831262351829569e-01

 106	1.060000000000001e+00
	-1.088753748141906e-16
	8.380155471527900e-18
	-4.388850853334367e-16
	2.628454713760778e-05
	3.543600860228026e-04
	1.115844851948904e-04
	5.831265252975665e-01

 107	1.070000000000001e+00
	-1.086590925313368e-16
	8.380771254002406e-18
	-4.399084607873028e-16
	2.678785207016563e-05
	3.551953317717624e-04
	1.151316675879351e-04
	5.831268161096634e-01

 108	1.080000000000001e+00
	-1.084460988093412e-16
	8.379959033233434e-18
	-4.408993635947467e-16
	2.729113265898516e-05
	3.560009862948691e-04
	1.186870474885846e-04
	5.831271075935066e-01

 109	1.090000000000001e+00
	-1.082362056890930e-16
	8.377720879784640e-18
	-4.418593147305604e-16
	2.779448656178365e-05
	3.567799029297948e-04
	1.222503440512484e-04
	5.831273997260693e-01

 110	1.100000000000001e+00
	-1.080292365296769e-16
	8.374055906034760e-18
	-4.427897616000058e-16
	2.829799368082889e-05
	3.575341605061030e-04
	1.258213009495607e-04
	5.831276924863343e-01

 111	1.110000000000001e+00
	-1.078250253727902e-16
	8.368960247863961e-18
	-4.436920808125012e-16
	2.880171914285809e-05
	3.582652121159442e-04
	1.293996793970295e-04
	5.831279858547234e-01

 112	1.120000000000001e+00
	-1.076234163329437e-16
	8.362427042254025e-18
	-4.445675809375573e-16
	2.930571588919089e-05
	3.589740115905970e-04
	1.329852525413026e-04
	5.831282798126366e-01

 113	1.130000000000001e+00
	-1.074242630136589e-16
	8.354446400264694e-18
	-4.454175052290815e-16
	2.981002691420186e-05
	3.596611202708902e-04
	1.365778010222167e-04
	5.831285743420879e-01

 114	1.140000000000001e+00
	-1.072274279496496e-16
	8.345005374881491e-18
	-4.462430343063024e-16
	3.031468718970277e-05
	3.603267965092237e-04
	1.401771095089468e-04
	5.831288694254214e-01

 115	1.150000000000001e+00
	-1.070327820747909e-16
	8.334087923257817e-18
	-4.470452887814877e-16
	3.081972531107835e-05
	3.609710701541800e-04
	1.437829640550428e-04
	5.831291650450957e-01

 116	1.160000000000001e+00
	-1.068402042155226e-16
	8.321674862896997e-18
	-4.478253318263181e-16
	3.132516489864329e-05
	3.615938040643545e-04
	1.473951501316261e-04
	5.831294611835213e-01

 117	1.170000000000001e+00
	-1.066495806092031e-16
	8.307743821338134e-18
	-4.485841716702977e-16
	3.183102578495485e-05
	3.621947444893348e-04
	1.510134512184395e-04
	5.831297578229456e-01

 118	1.180000000000001e+00
	-1.064608044468271e-16
	8.292269178923569e-18
	-4.493227640259090e-16
	3.233732501593891e-05
	3.627735619515554e-04
	1.546376478497817e-04
	5.831300549453742e-01

 119	1.190000000000001e+00
	-1.062737754394341e-16
	8.275222004235652e-18
	-4.500420144363885e-16
	3.284407769082313e-05
	3.633298840689078e-04
	1.582675170277262e-04
	5.831303525325234e-01

 120	1.200000000000001e+00
	-1.060883994074729e-16
	8.256569981796960e-18
	-4.507427805430264e-16
	3.335129766310580e-05
	3.638633215777822e-04
	1.619028319284873e-04
	5.831306505657967e-01

 121	1.210000000000001e+00
	-1.059045878923317e-16
	8.236277331631273e-18
	-4.514258742697797e-16
	3.385899812219768e-05
	3.643734886515775e-04
	1.655433618395742e-04
	5.831309490262772e-01

 122	1.220000000000001e+00
	-1.057222577892146e-16
	8.214304720282323e-18
	-4.520920639237579e-16
	3.436719207297578e-05
	3.648600184611017e-04
	1.691888722755405e-04
	5.831312478947402e-01

 123	1.230000000000001e+00
	-1.055413310005183e-16
	8.190609162885014e-18
	-4.527420762108097e-16
	3.487589272831231e-05
	3.653225747906307e-04
	1.728391252289472e-04
	5.831315471516723e-01

 124	1.240000000000001e+00
	-1.053617341088472e-16
	8.165143915878301e-18
	-4.533765981659976e-16
	3.538511382767720e-05
	3.657608604059309e-04
	1.764938795206718e-04
	5.831318467772990e-01

 125	1.250000000000001e+00
	-1.051833980688059e-16
	8.137858359941707e-18
	-4.539962789992283e-16
	3.589486989316459e-05
	3.661746227673343e-04
	1.801528912201420e-04
	5.831321467516217e-01

 126	1.260000000000001e+00
	-1.050062579167075e-16
	8.108697872728191e-18
	-4.546017318567182e-16
	3.640517643274260e-05
	3.665636575907870e-04
	1.838159141115386e-04
	5.831324470544532e-01

 127	1.270000000000001e+00
	-1.048302524973429e-16
	8.077603690955099e-18
	-4.551935354992923e-16
	3.691605009916041e-05
	3.669278106814675e-04
	1.874827001866338e-04
	5.831327476654611e-01

 128	1.280000000000001e+00
	-1.046553242069762e-16
	8.044512761402549e-18
	-4.557722358988093e-16
	3.742750881175089e-05
	3.672669783968410e-04
	1.911530001488366e-04
	5.831330485642058e-01

 129	1.290000000000001e+00
	-1.044814187517435e-16
	8.009357580355848e-18
	-4.563383477542063e-16
	3.793957184732417e-05
	3.675811070377146e-04
	1.948265639162784e-04
	5.831333497301844e-01

 130	1.300000000000001e+00
	-1.043084849206572e-16
	7.972066021013449e-18
	-4.568923559288485e-16
	3.845225990543970e-05
	3.678701914158593e-04
	1.985031411145042e-04
	5.831336511428694e-01

 131	1.310000000000001e+00
	-1.041364743724419e-16
	7.932561148368727e-18
	-4.574347168109943e-16
	3.896559515256057e-05
	3.681342728040532e-04
	2.021824815516034e-04
	5.831339527817496e-01

 132	1.320000000000001e+00
	-1.039653414354524e-16
	7.890761021058064e-18
	-4.579658595992829e-16
	3.947960124891318e-05
	3.683734364380405e-04
	2.058643356704757e-04
	5.831342546263649e-01

 133	1.330000000000001e+00
	-1.037950429199539e-16
	7.846578479654649e-18
	-4.584861875152340e-16
	3.999430336129310e-05
	3.685878087090556e-04
	2.095484549744749e-04
	5.831345566563418e-01

 134	1.340000000000001e+00
	-1.036255379420741e-16
	7.799920920872812e-18
	-4.589960789447612e-16
	4.050972816455342e-05
	3.687775541594802e-04
	2.132345924239171e-04
	5.831348588514281e-01

 135	1.350000000000001e+00
	-1.034567877587636e-16
	7.750690057136245e-18
	-4.594958885107576e-16
	4.102590383408256e-05
	3.689428723722442e-04
	2.169225028019575e-04
	5.831351611915191e-01

 136	1.360000000000001e+00
	-1.032887556131349e-16
	7.698781660952272e-18
	-4.599859480787761e-16
	4.154286003120836e-05
	3.690839948261344e-04
	2.206119430491444e-04
	5.831354636566882e-01

 137	1.370000000000001e+00
	-1.031214065895779e-16
	7.644085293526299e-18
	-4.604665676978340e-16
	4.206062788315174e-05
	3.692011817737645e-04
	2.243026725666117e-04
	5.831357662272104e-01

 138	1.380000000000001e+00
	-1.029547074780804e-16
	7.586484017044844e-18
	-4.609380364783347e-16
	4.257923995888378e-05
	3.692947191861287e-04
	2.279944534883598e-04
	5.831360688835855e-01

 139	1.390000000000001e+00
	-1.027886266472150e-16
	7.525854090053768e-18
	-4.614006234090530e-16
	4.309873024201135e-05
	3.693649157970158e-04
	2.316870509234686e-04
	5.831363716065553e-01

 140	1.400000000000001e+00
	-1.026231339252808e-16
	7.462064645361084e-18
	-4.618545781150937e-16
	4.361913410162370e-05
	3.694121002717978e-04
	2.353802331693667e-04
	5.831366743771256e-01

 141	1.410000000000001e+00
	-1.024582004891162e-16
	7.394977349900877e-18
	-4.623001315586705e-16
	4.414048826186800e-05
	3.694366185179148e-04
	2.390737718974994e-04
	5.831369771765775e-01

 142	1.420000000000001e+00
	-1.022937987601332e-16
	7.324446046009727e-18
	-4.627374966845006e-16
	4.466283077088094e-05
	3.694388311485146e-04
	2.427674423128631e-04
	5.831372799864811e-01

 143	1.430000000000001e+00
	-1.021299023071474e-16
	7.250316373587776e-18
	-4.631668690115383e-16
	4.518620096959044e-05
	3.694191111059860e-04
	2.464610232889848e-04
	5.831375827887093e-01

 144	1.440000000000001e+00
	-1.019664857556070e-16
	7.172425372646953e-18
	-4.635884271727260e-16
	4.571063946079871e-05
	3.693778414483230e-04
	2.501542974799561e-04
	5.831378855654434e-01

 145	1.450000000000001e+00
	-1.018035247028495e-16
	7.090601065788799e-18
	-4.640023334043671e-16
	4.623618807887843e-05
	3.693154132982599e-04
	2.538470514111532e-04
	5.831381882991833e-01

 146	1.460000000000001e+00
	-1.016409956390458e-16
	7.004662020205619e-18
	-4.644087339866764e-16
	4.676288986034387e-05
	3.692322239527862e-04
	2.575390755502611e-04
	5.831384909727509e-01

 147	1.470000000000001e+00
	-1.014788758735091e-16
	6.914416888863729e-18
	-4.648077596370056e-16
	4.729078901550051e-05
	3.691286751488318e-04
	2.612301643601839e-04
	5.831387935692973e-01

 148	1.480000000000001e+00
	-1.013171434660796e-16
	6.819663930606624e-18
	-4.651995258571974e-16
	4.781993090133074e-05
	3.690051714795888e-04
	2.649201163353778e-04
	5.831390960723025e-01

 149	1.490000000000001e+00
	-1.011557771633143e-16
	6.720190509013311e-18
	-4.655841332364782e-16
	4.835036199573117e-05
	3.688621189549512e-04
	2.686087340230759e-04
	5.831393984655798e-01

 150	1.500000000000001e+00
	-1.009947563392355e-16
	6.615772569961980e-18
	-4.659616677112766e-16
	4.888212987318867e-05
	3.686999236988881e-04
	2.722958240308186e-04
	5.831397007332756e-01

 151	1.510000000000001e+00
	-1.008340609404206e-16
	6.506174097988100e-18
	-4.663322007833164e-16
	4.941528318195084e-05
	3.685189907761340e-04
	2.759811970216099e-04
	5.831400028598681e-01

 152	1.520000000000001e+00
	-1.006736714352265e-16
	6.391146551686712e-18
	-4.666957896973528e-16
	4.994987162273025e-05
	3.683197231403696e-04
	2.796646676979649e-04
	5.831403048301678e-01

 153	1.530000000000001e+00
	-1.005135687669781e-16
	6.270428278598456e-18
	-4.670524775798911e-16
	5.048594592895996e-05
	3.681025206959789e-04
	2.833460547760121e-04
	5.831406066293131e-01

 154	1.540000000000001e+00
	-1.003537343109611e-16
	6.143743910237566e-18
	-4.674022935402765e-16
	5.102355784860828e-05