Title: **.subckt gm_id_nmos
Date: Sat Jun 12 17:26:15  2021
Plotname: DC transfer characteristic
Flags: real
No. Variables: 8
No. Points: 181
Variables:
	0	v(v-sweep)	voltage
	1	@m.xm1.msky130_fd_pr__nfet_01v8_lvt[cgb]	capacitance
	2	@m.xm1.msky130_fd_pr__nfet_01v8_lvt[cgd]	capacitance
	3	@m.xm1.msky130_fd_pr__nfet_01v8_lvt[cgs]	capacitance
	4	@m.xm1.msky130_fd_pr__nfet_01v8_lvt[gds]	admittance
	5	@m.xm1.msky130_fd_pr__nfet_01v8_lvt[gm]	admittance
	6	i(@m.xm1.msky130_fd_pr__nfet_01v8_lvt[id])	current
	7	v(@m.xm1.msky130_fd_pr__nfet_01v8_lvt[vth])	voltage
Values:
 0	0.000000000000000e+00
	-2.003956520116756e-15
	-1.850087297873522e-20
	-3.595237001248965e-16
	5.994191181802447e-13
	5.247102500005964e-11
	1.882671623108032e-12
	5.208722804959438e-01

 1	1.000000000000000e-02
	-1.983814041279403e-15
	-2.007376629521078e-20
	-3.852224838019868e-16
	7.920126826764376e-13
	6.932847415413440e-11
	2.487762557067537e-12
	5.208722804959561e-01

 2	2.000000000000000e-02
	-1.963714183957804e-15
	-2.178108246411966e-20
	-4.126398458216613e-16
	1.046456094498415e-12
	9.159775081263576e-11
	3.287234185862613e-12
	5.208722804959754e-01

 3	3.000000000000000e-02
	-1.943631758474052e-15
	-2.363399172439129e-20
	-4.418697597337203e-16
	1.382596102584548e-12
	1.210141735536748e-10
	4.343480245162586e-12
	5.208722804959990e-01

 4	4.000000000000000e-02
	-1.923541958344850e-15
	-2.564451114347817e-20
	-4.730084449753738e-16
	1.826639802445260e-12
	1.598684277514312e-10
	5.738896435804605e-12
	5.208722804960307e-01

 5	5.000000000000000e-02
	-1.903420418533720e-15
	-2.782555565129653e-20
	-5.061539730873340e-16
	2.413188711956566e-12
	2.111837523006472e-10
	7.582279336653787e-12
	5.208722804960720e-01

 6	6.000000000000000e-02
	-1.883243288205465e-15
	-3.019099005886905e-20
	-5.414057950132566e-16
	3.187921161524992e-12
	2.789493727679846e-10
	1.001726558614361e-11
	5.208722804961274e-01

 7	7.000000000000001e-02
	-1.862987318562210e-15
	-3.275568169659250e-20
	-5.788641831869848e-16
	4.211128499516833e-12
	3.684278900140104e-10
	1.323345834619458e-11
	5.208722804961992e-01

 8	8.000000000000000e-02
	-1.842629966187185e-15
	-3.553555323881639e-20
	-6.186295826963424e-16
	5.562375167351961e-12
	4.865598342647964e-10
	1.748109143854675e-11
	5.208722804962960e-01

 9	9.000000000000000e-02
	-1.822149512118842e-15
	-3.854763521029403e-20
	-6.608018666900600e-16
	7.346637228130508e-12
	6.424957661878466e-10
	2.309034792385093e-11
	5.208722804964216e-01

 10	9.999999999999999e-02
	-1.801525196617476e-15
	-4.181011759746899e-20
	-7.054794924070062e-16
	9.702384463628246e-12
	8.482956367496969e-10
	3.049679832543551e-11
	5.208722804965887e-01

 11	1.100000000000000e-01
	-1.780737369266782e-15
	-4.534239991580093e-20
	-7.527585557946696e-16
	1.281221544959818e-11
	1.119847227258517e-09
	4.027487875014418e-11
	5.208722804968099e-01

 12	1.200000000000000e-01
	-1.759767653669714e-15
	-4.916513901581901e-20
	-8.027317446776241e-16
	1.691684303668345e-11
	1.478071164633017e-09
	5.318192239418651e-11
	5.208722804971000e-01

 13	1.300000000000000e-01
	-1.738599125552815e-15
	-5.330029384864268e-20
	-8.554871928595870e-16
	2.233347211503156e-11
	1.950500228896531e-09
	7.021602972161247e-11
	5.208722804974855e-01

 14	1.400000000000000e-01
	-1.717216502588543e-15
	-5.777116635991384e-20
	-9.111072404005020e-16
	2.947992855407144e-11
	2.573346663989828e-09
	9.269206435256791e-11
	5.208722804979911e-01

 15	1.500000000000000e-01
	-1.695606343687137e-15
	-6.260243764360729e-20
	-9.696671085889319e-16
	3.890630810479250e-11
	3.394204474502836e-09
	1.223413583927918e-10
	5.208722804986610e-01

 16	1.600000000000000e-01
	-1.673757254911148e-15
	-6.782019846865765e-20
	-1.031233501793250e-15
	5.133644221039740e-11
	4.475576067339846e-09
	1.614423842035228e-10
	5.208722804995417e-01

 17	1.700000000000000e-01
	-1.651660098540832e-15
	-7.345197329618148e-20
	-1.095863152351934e-15
	6.772215545666877e-11
	5.899466261910810e-09
	2.129918011086725e-10
	5.208722805007042e-01

 18	1.800000000000000e-01
	-1.629308201191374e-15
	-7.952673693840407e-20
	-1.163601328855956e-15
	8.931415506009708e-11
	7.773354201958348e-09
	2.809280406189990e-10
	5.208722805022370e-01

 19	1.900000000000000e-01
	-1.606697556277710e-15
	-8.607492307607518e-20
	-1.234480332444512e-15
	1.177544922227531e-10
	1.023793797529039e-08
	3.704231051761621e-10
	5.208722805042553e-01

 20	2.000000000000000e-01
	-1.583827015573342e-15
	-9.312842395327504e-20
	-1.308518009909225e-15
	1.551969222332204e-10
	1.347715100723389e-08
	4.882627067211718e-10
	5.208722805069126e-01

 21	2.100000000000000e-01
	-1.560698464150771e-15
	-1.007205807094646e-19
	-1.385716316274276e-15
	2.044632262579616e-10
	1.773107693954205e-08
	6.433404793631379e-10
	5.208722805104105e-01

 22	2.200000000000001e-01
	-1.537316972661782e-15
	-1.088861639895917e-19
	-1.466059962857666e-15
	2.692457100144010e-10
	2.331254409636924e-08
	8.472990158721254e-10
	5.208722805150092e-01

 23	2.300000000000001e-01
	-1.513690920754637e-15
	-1.176613446934181e-19
	-1.549515189371153e-15
	3.543687319566514e-10
	3.062836475371583e-08
	1.115359183474533e-09
	5.208722805210559e-01

 24	2.400000000000001e-01
	-1.489832085469609e-15
	-1.270836549818947e-19
	-1.636028700128785e-15
	4.661252998536295e-10
	4.020640041566203e-08
	1.467389879392191e-09
	5.208722805289945e-01

 25	2.500000000000001e-01
	-1.465755688735244e-15
	-1.371919399460436e-19
	-1.725526804661580e-15
	6.127085558300270e-10
	5.272988291676065e-08
	1.929283414642437e-09
	5.208722805394115e-01

 26	2.600000000000001e-01
	-1.441480398629967e-15
	-1.480263006544671e-19
	-1.817914801771509e-15
	8.047623558443060e-10
	6.908070121152744e-08
	2.534717387932615e-09
	5.208722805530643e-01

 27	2.700000000000001e-01
	-1.417028279887962e-15
	-1.596280296186210e-19
	-1.913076643139730e-15
	1.056080085620786e-09
	9.039367161396752e-08
	3.327402528488445e-09
	5.208722805709419e-01

 28	2.800000000000001e-01
	-1.392424690213362e-15
	-1.720395400379164e-19
	-2.010874907951772e-15
	1.384486182877989e-09
	1.181241391905020e-07
	4.363937798474856e-09
	5.208722805943183e-01

 29	2.900000000000001e-01
	-1.367698120302820e-15
	-1.853042904949953e-19
	-2.111151113619558e-15
	1.812940240250715e-09
	1.541316030277212e-07
	5.717419237945770e-09
	5.208722806248425e-01

 30	3.000000000000001e-01
	-1.342879977027653e-15
	-1.994667070498405e-19
	-2.213726379681705e-15
	2.370908506005003e-09
	2.007824129050287e-07
	7.481977729202260e-09
	5.208722806646382e-01

 31	3.100000000000001e-01
	-1.318004310938213e-15
	-2.145721049148129e-19
	-2.318402452569554e-15
	3.096051240039093e-09
	2.610749510735640e-07
	9.778453150177460e-09
	5.208722807164285e-01

 32	3.200000000000001e-01
	-1.293107491055667e-15
	-2.306666120663082e-19
	-2.424963088469064e-15
	4.036275496660726e-09
	3.387911066673716e-07
	1.276144845690939e-08
	5.208722807837023e-01

 33	3.300000000000001e-01
	-1.268227831727960e-15
	-2.477970972514708e-19
	-2.533175780415974e-15
	5.252199816795211e-09
	4.386783123646979e-07
	1.662804753863983e-08
	5.208722808709031e-01

 34	3.400000000000001e-01
	-1.243405178057519e-15
	-2.660111048704897e-19
	-2.642793804534013e-15
	6.820067864846542e-09
	5.666670160510776e-07
	2.162852624369439e-08
	5.208722809836760e-01

 35	3.500000000000001e-01
	-1.218680457967893e-15
	-2.853567991522824e-19
	-2.753558549512479e-15
	8.835129662567670e-09
	7.301293074069650e-07
	2.807943868599280e-08
	5.208722811291592e-01

 36	3.600000000000002e-01
	-1.194095210278162e-15
	-3.058829198937093e-19
	-2.865202083572965e-15
	1.141547895759220e-08
	9.381856176278915e-07
	3.637952380401252e-08
	5.208722813163460e-01

 37	3.700000000000002e-01
	-1.169691099123879e-15
	-3.276387518043568e-19
	-2.977449904820037e-15
	1.470629081318644e-08
	1.202067999451583e-06
	4.702895396788358e-08
	5.208722815565160e-01

 38	3.800000000000002e-01
	-1.145509425643679e-15
	-3.506741092001621e-19
	-3.090023814458500e-15
	1.888434298485790e-08
	1.535550305023478e-06
	6.065254153127498e-08
	5.208722818637602e-01

 39	3.900000000000002e-01
	-1.121590648007227e-15
	-3.750393374336605e-19
	-3.202644848237634e-15
	2.416262816255757e-08
	1.955457006536909e-06
	7.802763027290656e-08
	5.208722822556109e-01

 40	4.000000000000002e-01
	-1.097973920582223e-15
	-4.007853320528003e-19
	-3.315036199865139e-15
	3.079477483313593e-08
	2.482262117034963e-06
	1.001175169114444e-07
	5.208722827537898e-01

 41	4.100000000000002e-01
	-1.074696662342278e-15
	-4.279635762641479e-19
	-3.426926071085658e-15
	3.907889971868213e-08
	3.140785335312793e-06
	1.281113454113693e-07
	5.208722833851176e-01

 42	4.200000000000002e-01
	-1.051794163543210e-15
	-4.566261968589296e-19
	-3.538050386557849e-15
	4.936042692485199e-08
	3.960980771197667e-06
	1.634714370219115e-07
	5.208722841825717e-01

 43	4.300000000000002e-01
	-1.029299238304763e-15
	-4.868260383616456e-19
	-3.648155317359114e-15
	6.203334560564737e-08
	4.978790411542702e-06
	2.079888677102498e-07
	5.208722851865463e-01

 44	4.400000000000002e-01
	-1.007241929105048e-15
	-5.186167547982320e-19
	-3.756999564552056e-15
	7.753936020400349e-08
	6.236996548365076e-06
	2.638476496417942e-07
	5.208722864462945e-01

 45	4.500000000000002e-01
	-9.856492674141809e-16
	-5.520529181681828e-19
	-3.864356363315931e-15
	9.636443643572640e-08
	7.785954337998188e-06
	3.336969617176030e-07
	5.208722880215639e-01

 46	4.600000000000002e-01
	-9.645450928526508e-16
	-5.871901424541980e-19
	-3.970015178182444e-15
	1.190323783966835e-07
	9.684022970065749e-06
	4.207293760670004e-07
	5.208722899843516e-01

 47	4.700000000000003e-01
	-9.439499314475186e-16
	-6.240852218195613e-19
	-4.073783070395188e-15
	1.460952924832284e-07
	1.199745535779809e-05
	5.287609077679746e-07
	5.208722924207199e-01

 48	4.800000000000003e-01
	-9.238809318556109e-16
	-6.627962815308402e-19
	-4.175485728833849e-15
	1.781210903919197e-07
	1.479947400906621e-05
	6.623061200294718e-07
	5.208722954324827e-01

 49	4.900000000000003e-01
	-9.043518568945231e-16
	-7.033829400996741e-19
	-4.274968165846795e-15
	2.156785249587722e-07
	1.816828139219051e-05
	8.266388420835303e-07
	5.208722991385779e-01

 50	5.000000000000002e-01
	-8.853731264208385e-16
	-7.459064811578376e-19
	-4.372095088335148e-15
	2.593205903660549e-07
	2.218384877507660e-05
	1.027826950215401e-06
	5.208723036758489e-01

 51	5.100000000000002e-01
	-8.669519065541231e-16
	-7.904300336567537e-19
	-4.466750962227927e-15
	3.095673942936868e-07
	2.692350396296779e-05
	1.272728921205427e-06
	5.208723091989715e-01

 52	5.200000000000002e-01
	-8.490922394813533e-16
	-8.370187591067024e-19
	-4.558839794881023e-15
	3.668897690905824e-07
	3.245657507084324e-05
	1.568941221588723e-06
	5.208723158792652e-01

 53	5.300000000000002e-01
	-8.317952075893404e-16
	-8.857400447326927e-19
	-4.648284664817282e-15
	4.316948941414064e-07
	3.883859571346671e-05
	1.924689425763621e-06
	5.208723239022344e-01

 54	5.400000000000003e-01
	-8.150591254484016e-16
	-9.366637016119536e-19
	-4.735027031586720e-15
	5.043150422258728e-07
	4.610577004739548e-05
	2.348662050273323e-06
	5.208723334638260e-01

 55	5.500000000000003e-01
	-7.988797531836558e-16
	-9.898621670631998e-19
	-4.819025860428091e-15
	5.850002604254449e-07
	5.427047016232218e-05
	2.849793566765599e-06
	5.208723447655349e-01

 56	5.600000000000003e-01
	-7.832505249877799e-16
	-1.045410710771209e-18
	-4.900256596980226e-15
	6.739153998025968e-07
	6.331845656690647e-05
	3.437010506848468e-06
	5.208723580086736e-01

 57	5.700000000000003e-01
	-7.681627869129298e-16
	-1.103387644342854e-18
	-4.978710026692794e-15
	7.711414819659745e-07
	7.320828142343682e-05
	4.118960433414554e-06
	5.208723733882660e-01

 58	5.800000000000003e-01
	-7.536060385904420e-16
	-1.163874534197707e-18
	-5.054391052017942e-15
	8.766809996207212e-07
	8.387300402846210e-05
	4.903746550976445e-06
	5.208723910870584e-01

 59	5.900000000000003e-01
	-7.395681741260374e-16
	-1.226956417890788e-18
	-5.127317418132334e-15
	9.904664440837619e-07
	9.522399671553413e-05
	5.798690248059343e-06
	5.208724112701644e-01

 60	6.000000000000003e-01
	-7.260357180697964e-16
	-1.292722024143816e-18
	-5.197518415049382e-15
	1.112371165541813e-06
	1.071563266741034e-04
	6.810140104805632e-06
	5.208724340807585e-01

 61	6.100000000000003e-01
	-7.129940530321966e-16
	-1.361263997021393e-18
	-5.265033580726275e-15
	1.242221607594758e-06
	1.195550225614255e-04
	7.943339758727861e-06
	5.208724596370986e-01

 62	6.200000000000003e-01
	-7.004276361830869e-16
	-1.432679124829895e-18
	-5.329911426323785e-15
	1.379810002019498e-06
	1.323014956122783e-04
	9.202359800686614e-06
	5.208724880309827e-01

 63	6.300000000000003e-01
	-6.883202025078851e-16
	-1.507068574437074e-18
	-5.392208201288141e-15
	1.524906735112538e-06
	1.452794687626947e-04
	1.059009190033375e-05
	5.208725193276260e-01

 64	6.400000000000003e-01
	-6.766549532878488e-16
	-1.584538131813393e-18
	-5.451986712518615e-15
	1.677271770623484e-06
	1.583799349402651e-04
	1.210829768372510e-05
	5.208725535667557e-01

 65	6.500000000000004e-01
	-6.654147288075798e-16
	-1.665198449681234e-18
	-5.509315208657666e-15
	1.836664705015715e-06
	1.715048689672805e-04
	1.375770110395520e-05
	5.208725907646964e-01

 66	6.600000000000004e-01
	-6.545821647655412e-16
	-1.749165303229354e-18
	-5.564266337565379e-15
	2.002853213577899e-06
	1.845696132520326e-04
	1.553811129028036e-05
	5.208726309171433e-01

 67	6.700000000000004e-01
	-6.441398322692115e-16
	-1.836559854908474e-18
	-5.616916182363979e-15
	2.175619803870209e-06
	1.975040158104589e-04
	1.744856289450693e-05
	5.208726740023246e-01

 68	6.800000000000004e-01
	-6.340703616353524e-16
	-1.927508929374363e-18
	-5.667343379087924e-15
	2.354766917269373e-06
	2.102525061351163e-04
	1.948746231886901e-05
	5.208727199843000e-01

 69	6.900000000000004e-01
	-6.243565504901204e-16
	-2.022145299686272e-18
	-5.715628316960935e-15
	2.540120507772593e-06
	2.227733494706535e-04
	2.165273038102901e-05
	5.208727688161753e-01

 70	7.000000000000004e-01
	-6.149814568777399e-16
	-2.120607985908150e-18
	-5.761852420637216e-15
	2.731532282229744e-06
	2.350373315454402e-04
	2.394193446641811e-05
	5.208728204430904e-01

 71	7.100000000000004e-01
	-6.059284782456462e-16
	-2.223042567295384e-18
	-5.806097512375969e-15
	2.928880813051606e-06
	2.470261062428767e-04
	2.635240566123230e-05
	5.208728748048514e-01

 72	7.200000000000004e-01
	-5.971814172846569e-16
	-2.329601509285248e-18
	-5.848445251041056e-15
	3.132071739580134e-06
	2.587304008921081e-04
	2.888133850546271e-05
	5.208729318381869e-01

 73	7.300000000000004e-01
	-5.887245356714719e-16
	-2.440444506546158e-18
	-5.888976644005088e-15
	3.341037264080543e-06
	2.701482286318306e-04
	3.152587272839142e-05
	5.208729914785923e-01

 74	7.400000000000004e-01
	-5.805425967940859e-16
	-2.555738843379411e-18
	-5.927771627457023e-15
	3.555735128364015e-06
	2.812832124794578e-04
	3.428315759654013e-05
	5.208730536617721e-01

 75	7.500000000000004e-01
	-5.726208985448365e-16
	-2.675659772809760e-18
	-5.964908710233383e-15
	3.776147231949665e-06
	2.921430861339783e-04
	3.715040034661255e-05
	5.208731183247424e-01

 76	7.600000000000005e-01
	-5.649452972466505e-16
	-2.800390915748544e-18
	-6.000464676085154e-15
	4.002278025857442e-06
	3.027384044615462e-04
	4.012490065907373e-05
	5.208731854066037e-01

 77	7.700000000000005e-01
	-5.575022237407039e-16
	-2.930124681665138e-18
	-6.034514339224550e-15
	4.234152789961510e-06
	3.130814725625546e-04
	4.320407333059525e-05
	5.208732548490518e-01

 78	7.800000000000005e-01
	-5.502786926129528e-16
	-3.065062712261035e-18
	-6.067130348042417e-15
	4.471815877820038e-06
	3.231854856802220e-04
	4.638546130359667e-05
	5.208733265966716e-01

 79	7.900000000000005e-01
	-5.432623054767485e-16
	-3.205416349706278e-18
	-6.098383032022577e-15
	4.715328991833089e-06
	3.330638617932561e-04
	4.966674107695704e-05
	5.208734005970614e-01

 80	8.000000000000005e-01
	-5.364412491623246e-16
	-3.351407131069610e-18
	-6.128340287083274e-15
	4.964769533771395e-06
	3.427297431646010e-04
	5.304572230904688e-05
	5.208734768008219e-01

 81	8.100000000000005e-01
	-5.298042895942637e-16
	-3.503267310653729e-18
	-6.157067494828805e-15
	5.220229061132677e-06
	3.521956410766338e-04
	5.652034317428126e-05
	5.208735551614536e-01

 82	8.200000000000005e-01
	-5.233407620843032e-16
	-3.661240411605354e-18
	-6.184627161706522e-15
	5.481811867477457e-06
	3.614731816305579e-04
	6.008866276724692e-05
	5.208736356351811e-01

 83	8.300000000000005e-01
	-5.170405601077451e-16
	-3.825581770023647e-18
	-6.211077434830193e-15
	5.749633634195804e-06
	3.705728785074443e-04
	6.374885075821034e-05
	5.208737181807265e-01

 84	8.400000000000005e-01
	-5.108941180944252e-16
	-3.996559200329542e-18
	-6.236478309124490e-15
	6.023820365629658e-06
	3.795044043466784e-04
	6.749917798832262e-05
	5.208738027590881e-01

 85	8.500000000000005e-01
	-5.048923941250868e-16
	-4.174453663571457e-18
	-6.260884840225706e-15
	6.304507401413115e-06
	3.882762121006364e-04
	7.133800585847107e-05
	5.208738893333138e-01

 86	8.600000000000005e-01
	-4.990268525613181e-16
	-4.359559934046426e-18
	-6.284349536997201e-15
	6.591838496482445e-06
	3.968956836280118e-04
	7.526377491191246e-05
	5.208739778682304e-01

 87	8.700000000000006e-01
	-4.932894446055387e-16
	-4.552187330446801e-18
	-6.306922406329062e-15
	6.885965065278912e-06
	4.053691833387493e-04
	7.927499437268925e-05
	5.208740683302150e-01

 88	8.800000000000006e-01
	-4.876725881518281e-16
	-4.752660489826120e-18
	-6.328651008754542e-15
	7.187045541183679e-06
	4.137021302370425e-04
	8.337023231970458e-05
	5.208741606869752e-01

 89	8.900000000000006e-01
	-4.821691472165996e-16
	-4.961320187048953e-18
	-6.349580522764177e-15
	7.495244842020353e-06
	4.218990808152696e-04
	8.754810664101886e-05
	5.208742549073370e-01

 90	9.000000000000006e-01
	-4.767724111948636e-16
	-5.178524202550292e-18
	-6.369753815949762e-15
	7.810733932326864e-06
	4.299638170665278e-04
	9.180727684680668e-05
	5.208743509610678e-01

 91	9.100000000000006e-01
	-4.714760741487972e-16
	-5.404648241408005e-18
	-6.389211521342977e-15
	8.133689473310547e-06
	4.378994353761419e-04
	9.614643676983187e-05
	5.208744488187100e-01

 92	9.200000000000006e-01
	-4.662742143007178e-16
	-5.640086906917200e-18
	-6.407992117525970e-15
	8.464293551841356e-06
	4.457084332559244e-04
	1.005643081461404e-04
	5.208745484514327e-01

 93	9.300000000000006e-01
	-4.611612738717202e-16
	-5.885254732056306e-18
	-6.426132011284830e-15
	8.802733480424865e-06
	4.533927918373393e-04
	1.050596350432644e-04
	5.208746498309098e-01

 94	9.400000000000006e-01
	-4.561320393802553e-16
	-6.140587272445969e-18
	-6.443665621751543e-15
	9.149201660765227e-06
	4.609540527798914e-04
	1.096311790862668e-04
	5.208747529292124e-01

 95	9.500000000000006e-01
	-4.511816224912015e-16
	-6.406542264628279e-18
	-6.460625465137152e-15
	9.503895504230764e-06
	4.683933888155568e-04
	1.142777154214693e-04
	5.208748577187148e-01

 96	9.600000000000006e-01
	-4.463054414855016e-16
	-6.683600853733929e-18
	-6.477042239298668e-15
	9.867017403239362e-06
	4.757116675718215e-04
	1.189980293521339e-04
	5.208749641720203e-01

 97	9.700000000000006e-01
	-4.414992034026757e-16
	-6.972268894859274e-18
	-6.492944907506904e-15
	1.023877474826510e-05
	4.829095086234533e-04
	1.237909135784164e-04
	5.208750722619019e-01

 98	9.800000000000006e-01
	-4.367588868933725e-16
	-7.273078332744195e-18
	-6.508360780892081e-15
	1.061937998581832e-05
	4.899873339407038e-04
	1.286551659745756e-04
	5.208751819612449e-01

 99	9.900000000000007e-01
	-4.320807258061752e-16
	-7.586588664628907e-18
	-6.523315599140522e-15
	1.100905071335253e-05
	4.969454120493060e-04
	1.335895878388698e-04
	5.208752932430148e-01

 100	1.000000000000001e+00
	-4.274611935220374e-16
	-7.913388491467431e-18
	-6.537833609100145e-15
	1.140800980761685e-05
	5.037838963118628e-04
	1.385929825552597e-04
	5.208754060802244e-01

 101	1.010000000000001e+00
	-4.228969880405858e-16
	-8.254097162995488e-18
	-6.551937641025566e-15
	1.181648558347419e-05
	5.105028577941627e-04
	1.436641546104135e-04
	5.208755204459089e-01

 102	1.020000000000001e+00
	-4.183850178149983e-16
	-8.609366522486137e-18
	-6.565649182257125e-15
	1.223471198067020e-05
	5.171023132041714e-04
	1.488019089142975e-04
	5.208756363131151e-01

 103	1.030000000000001e+00
	-4.139223883260093e-16
	-8.979882757379644e-18
	-6.578988448182387e-15
	1.266292877645025e-05
	5.235822483941401e-04
	1.540050503775375e-04
	5.208757536548900e-01

 104	1.040000000000001e+00
	-4.095063893806145e-16
	-9.366368362346025e-18
	-6.591974450375344e-15
	1.310138182229367e-05
	5.299426379039052e-04
	1.592723837035933e-04
	5.208758724442740e-01

 105	1.050000000000001e+00
	-4.051344831171148e-16
	-9.769584221727886e-18
	-6.604625061847781e-15
	1.355032330336403e-05
	5.361834610008665e-04
	1.646027133584553e-04
	5.208759926543043e-01

 106	1.060000000000001e+00
	-4.008042926950594e-16
	-1.019033181872190e-17
	-6.616957079380645e-15
	1.401001201957058e-05
	5.423047146431273e-04
	1.699948436849963e-04
	5.208761142580137e-01

 107	1.070000000000001e+00
	-3.965135916464110e-16
	-1.062945557907957e-17
	-6.628986282930869e-15
	1.448071368739760e-05
	5.483064237595930e-04
	1.754475791332085e-04
	5.208762372284398e-01

 108	1.080000000000001e+00
	-3.922602938625128e-16
	-1.108784535755719e-17
	-6.640727492132105e-15
	1.496270126189196e-05
	5.541886492064921e-04
	1.809597245813236e-04
	5.208763615386266e-01

 109	1.090000000000001e+00
	-3.880424441904491e-16
	-1.156643907580386e-17
	-6.652194619926456e-15
	1.545625527840722e-05
	5.599514937253042e-04
	1.865300857262326e-04
	5.208764871616397e-01

 110	1.100000000000001e+00
	-3.838582096116219e-16
	-1.206622552085670e-17
	-6.663400723379561e-15
	1.596166421388859e-05
	5.655951061934752e-04
	1.921574695247156e-04
	5.208766140705701e-01

 111	1.110000000000001e+00
	-3.797058709752316e-16
	-1.258824731390722e-17
	-6.674358051743025e-15
	1.647922486764844e-05
	5.711196844272170e-04
	1.978406846697212e-04
	5.208767422385505e-01

 112	1.120000000000001e+00
	-3.755838152592526e-16
	-1.313360405950947e-17
	-6.685078091837866e-15
	1.700924276173216e-05
	5.765254767656284e-04
	2.035785420883996e-04
	5.208768716387634e-01

 113	1.130000000000001e+00
	-3.714905283319599e-16
	-1.370345568592399e-17
	-6.695571610838981e-15
	1.755203256110802e-05
	5.818127826375455e-04
	2.093698554507272e-04
	5.208770022444527e-01

 114	1.140000000000001e+00
	-3.674245881874334e-16
	-1.429902598781848e-17
	-6.705848696546086e-15
	1.810791851403767e-05
	5.869819522870543e-04
	2.152134416794538e-04
	5.208771340289362e-01

 115	1.150000000000001e+00
	-3.633846586292603e-16
	-1.492160638308239e-17
	-6.715918795229374e-15
	1.867723491309465e-05
	5.920333858104748e-04
	2.211081214537396e-04
	5.208772669656163e-01

 116	1.160000000000001e+00
	-3.593694833773891e-16
	-1.557255989605323e-17
	-6.725790747140217e-15
	1.926032657740261e-05
	5.969675316368543e-04
	2.270527197002833e-04
	5.208774010279894e-01

 117	1.170000000000001e+00
	-3.553778805740370e-16
	-1.625332537998052e-17
	-6.735472819777699e-15
	1.985754935675754e-05
	6.017848845653638e-04
	2.330460660669441e-04
	5.208775361896625e-01

 118	1.180000000000001e+00
	-3.514087376655351e-16
	-1.696542199208491e-17
	-6.744972739001404e-15
	2.046927065839016e-05
	6.064859834565207e-04
	2.390869953749407e-04
	5.208776724243556e-01

 119	1.190000000000001e+00
	-3.474610066379909e-16
	-1.771045393507431e-17
	-6.754297718079780e-15
	2.109586999720575e-05
	6.110714086595020e-04
	2.451743480465791e-04
	5.208778097059168e-01

 120	1.200000000000001e+00
	-3.435336995857688e-16
	-1.849011547946357e-17
	-6.763454484761382e-15
	2.173773957041945e-05
	6.155417792450154e-04
	2.513069705062316e-04
	5.208779480083287e-01

 121	1.210000000000001e+00
	-3.396258845928108e-16
	-1.930619628149026e-17
	-6.772449306454078e-15
	2.239528485758040e-05
	6.198977501019330e-04
	2.574837155529239e-04
	5.208780873057183e-01

 122	1.220000000000001e+00
	-3.357366819079713e-16
	-2.016058701182137e-17
	-6.781288013594377e-15
	2.306892524705039e-05
	6.241400089461008e-04
	2.637034427034120e-04
	5.208782275723641e-01

 123	1.230000000000001e+00
	-3.318652603965672e-16
	-2.105528531058149e-17
	-6.789976021286070e-15
	2.375909469007465e-05
	6.282692732812713e-04
	2.699650185050892e-04
	5.208783687827034e-01

 124	1.240000000000001e+00
	-3.280108342514501e-16
	-2.199240208448943e-17
	-6.798518349283876e-15
	2.446624238364867e-05
	6.322862873447452e-04
	2.762673168184014e-04
	5.208785109113377e-01

 125	1.250000000000001e+00
	-3.241726599479630e-16
	-2.297416816205838e-17
	-6.806919640394456e-15
	2.519083348345299e-05
	6.361918190640139e-04
	2.826092190687584e-04
	5.208786539330407e-01

 126	1.260000000000001e+00
	-3.203500334281281e-16
	-2.400294132284597e-17
	-6.815184177363559e-15
	2.593334984819345e-05
	6.399866570453069e-04
	2.889896144681647e-04
	5.208787978227594e-01

 127	1.270000000000001e+00
	-3.165422875005027e-16
	-2.508121371664174e-17
	-6.823315898314389e-15
	2.669429081674604e-05
	6.436716076103335e-04
	2.954074002069690e-04
	5.208789425556217e-01

 128	1.280000000000001e+00
	-3.127487894430023e-16
	-2.621161968819579e-17
	-6.831318410798869e-15
	2.747417401956918e-05
	6.472474918936015e-04
	3.018614816162745e-04
	5.208790881069418e-01

 129	1.290000000000001e+00
	-3.089689387970141e-16
	-2.739694402260330e-17
	-6.839195004519926e-15
	2.827353622590743e-05
	6.507151430094391e-04
	3.083507723016833e-04
	5.208792344522160e-01

 130	1.300000000000001e+00
	-3.052021653419948e-16
	-2.864013062572119e-17
	-6.846948662779550e-15
	2.909293422836557e-05
	6.540754032950228e-04
	3.148741942490773e-04
	5.208793815671324e-01

 131	1.310000000000001e+00
	-3.014479272406235e-16
	-2.994429165296493e-17
	-6.854582072704211e-15
	2.993294576649303e-05
	6.573291216334676e-04
	3.214306779032410e-04
	5.208795294275703e-01

 132	1.320000000000001e+00
	-2.977057093453952e-16
	-3.131271709847133e-17
	-6.862097634296268e-15
	3.079417049106891e-05
	6.604771508590892e-04
	3.280191622201335e-04
	5.208796780095973e-01

 133	1.330000000000001e+00
	-2.939750216583917e-16
	-3.274888485484310e-17
	-6.869497468357068e-15
	3.167723097082779e-05
	6.635203452453836e-04
	3.346385946936181e-04
	5.208798272894799e-01

 134	1.340000000000001e+00
	-2.902553979366351e-16
	-3.425647125148522e-17
	-6.876783423325332e-15
	3.258277374341616e-05
	6.664595580750115e-04
	3.412879313575075e-04
	5.208799772436722e-01

 135	1.350000000000001e+00
	-2.865463944362648e-16
	-3.583936207679380e-17
	-6.883957081071676e-15
	3.351147041240532e-05
	6.692956392900110e-04
	3.479661367637026e-04
	5.208801278488212e-01

 136	1.360000000000001e+00
	-2.828475887893769e-16
	-3.750166408612835e-17
	-6.891019761688962e-15
	3.446401879222410e-05
	6.720294332196711e-04
	3.546721839372326e-04
	5.208802790817668e-01

 137	1.370000000000001e+00
	-2.791585790080357e-16
	-3.924771699347838e-17
	-6.897972527316270e-15
	3.544114410290393e-05
	6.746617763828544e-04
	3.614050543089601e-04
	5.208804309195371e-01

 138	1.380000000000001e+00
	-2.754789826105763e-16
	-4.108210593994367e-17
	-6.904816185033590e-15
	3.644360021654073e-05
	6.771934953610630e-04
	3.681637376266602e-04
	5.208805833393491e-01

 139	1.390000000000001e+00
	-2.718084358658926e-16
	-4.300967442649310e-17
	-6.911551288863773e-15
	3.747217095739497e-05
	6.796254047381992e-04
	3.749472318451864e-04
	5.208807363186014e-01

 140	1.400000000000001e+00
	-2.681465931518906e-16
	-4.503553769184050e-17
	-6.918178140918412e-15
	3.852767145753532e-05
	6.819583051027150e-04
	3.817545429963383e-04
	5.208808898348799e-01

 141	1.410000000000001e+00
	-2.644931264247411e-16
	-4.716509650855755e-17
	-6.924696791725085e-15
	3.961094956992171e-05
	6.841929811077039e-04
	3.885846850390635e-04
	5.208810438659461e-01

 142	1.420000000000001e+00
	-2.608477247960707e-16
	-4.940405136162804e-17
	-6.931107039774602e-15
	4.072288734077578e-05
	6.863301995843947e-04
	3.954366796905257e-04
	5.208811983897376e-01

 143	1.430000000000001e+00
	-2.572100942154550e-16
	-5.175841696342188e-17
	-6.937408430329189e-15
	4.186440254303575e-05
	6.883707077045152e-04
	4.023095562385661e-04
	5.208813533843616e-01

 144	1.440000000000001e+00
	-2.535799572559880e-16
	-5.423453704736161e-17
	-6.943600253535408e-15
	4.303645027260233e-05
	6.903152311870359e-04
	4.092023513360140e-04
	5.208815088280928e-01

 145	1.450000000000001e+00
	-2.499570530008825e-16
	-5.683909936932919e-17
	-6.949681541889319e-15
	4.424002460897624e-05
	6.921644725448961e-04
	4.161141087772754e-04
	5.208816646993655e-01

 146	1.460000000000001e+00
	-2.463411370291993e-16
	-5.957915083088516e-17
	-6.955651067106257e-15
	4.547616034173873e-05
	6.939191093674723e-04
	4.230438792575732e-04
	5.208818209767733e-01

 147	1.470000000000001e+00
	-2.427319814988708e-16
	-6.246211262164990e-17
	-6.961507336453353e-15
	4.674593476414734e-05
	6.955797926347162e-04
	4.299907201151823e-04
	5.208819776390531e-01

 148	1.480000000000001e+00
	-2.391293753252352e-16
	-6.549579525953532e-17
	-6.967248588609633e-15
	4.805046953488768e-05
	6.971471450591151e-04
	4.369536950569399e-04
	5.208821346650927e-01

 149	1.490000000000001e+00
	-2.355331244530231e-16
	-6.868841338688950e-17
	-6.972872789126807e-15
	4.939093260875341e-05
	6.986217594518909e-04
	4.439318738673217e-04
	5.208822920339117e-01

 150	1.500000000000001e+00
	-2.319430522196477e-16
	-7.204860015794959e-17
	-6.978377625572902e-15
	5.076854023668040e-05
	7.000041971101364e-04
	4.509243321012727e-04
	5.208824497246626e-01

 151	1.510000000000001e+00
	-2.283589998071738e-16
	-7.558542102830390e-17
	-6.983760502451422e-15
	5.218455903517440e-05
	7.012949862219087e-04
	4.579301507610177e-04
	5.208826077166208e-01

 152	1.520000000000001e+00
	-2.247808267798804e-16
	-7.930838673032363e-17
	-6.989018536000685e-15
	5.364030812468367e-05
	7.024946202866865e-04
	4.649484159569975e-04
	5.208827659891743e-01

 153	1.530000000000001e+00
	-2.212084117036530e-16
	-8.322746518990211e-17
	-6.994148548990879e-15
	5.513716133591857e-05
	7.036035565489875e-04