Title: **.subckt gm_id_nmos
Date: Sat Jun 12 17:25:41  2021
Plotname: DC transfer characteristic
Flags: real
No. Variables: 8
No. Points: 181
Variables:
	0	v(v-sweep)	voltage
	1	@m.xm1.msky130_fd_pr__nfet_01v8_lvt[cgb]	capacitance
	2	@m.xm1.msky130_fd_pr__nfet_01v8_lvt[cgd]	capacitance
	3	@m.xm1.msky130_fd_pr__nfet_01v8_lvt[cgs]	capacitance
	4	@m.xm1.msky130_fd_pr__nfet_01v8_lvt[gds]	admittance
	5	@m.xm1.msky130_fd_pr__nfet_01v8_lvt[gm]	admittance
	6	i(@m.xm1.msky130_fd_pr__nfet_01v8_lvt[id])	current
	7	v(@m.xm1.msky130_fd_pr__nfet_01v8_lvt[vth])	voltage
Values:
 0	0.000000000000000e+00
	-1.074155062170495e-15
	1.287406474941648e-22
	-1.411979929288208e-16
	3.475355117697083e-13
	2.853191830738364e-11
	1.022659908072617e-12
	5.471478173513024e-01

 1	1.000000000000000e-02
	-1.064908223611911e-15
	-8.209974158427923e-23
	-1.513810179715137e-16
	4.592884282397611e-13
	3.771050375803251e-11
	1.351742231647639e-12
	5.471478173513125e-01

 2	2.000000000000000e-02
	-1.055683436344618e-15
	-3.281744392989892e-22
	-1.622614107341021e-16
	6.069632721940994e-13
	4.984018669089034e-11
	1.786681616521649e-12
	5.471478173513281e-01

 3	3.000000000000000e-02
	-1.046470045968417e-15
	-6.137081225390282e-22
	-1.738795611861530e-16
	8.020999930655018e-13
	6.586896811935915e-11
	2.361509479511397e-12
	5.471478173513481e-01

 4	4.000000000000000e-02
	-1.037257452335600e-15
	-9.433374149014124e-22
	-1.862771828698123e-16
	1.059942224232026e-12
	8.704894892912048e-11
	3.121187446480940e-12
	5.471478173513724e-01

 5	5.000000000000000e-02
	-1.028035128220147e-15
	-1.322142139755624e-21
	-1.994972027707537e-16
	1.400624128517449e-12
	1.150336550045765e-10
	4.125112545274005e-12
	5.471478173514066e-01

 6	6.000000000000000e-02
	-1.018792643577875e-15
	-1.755677758813889e-21
	-2.135836221669003e-16
	1.850736619641003e-12
	1.520063948135507e-10
	5.451743694836055e-12
	5.471478173514509e-01

 7	7.000000000000001e-02
	-1.009519695774806e-15
	-2.250008819501493e-21
	-2.285813454245975e-16
	2.445393736417769e-12
	2.008494845307330e-10
	7.204706752869995e-12
	5.471478173515094e-01

 8	8.000000000000000e-02
	-1.000206146131765e-15
	-2.811743185421050e-21
	-2.445359737529742e-16
	3.230958142665749e-12
	2.653672620640306e-10
	9.520848473626173e-12
	5.471478173515866e-01

 9	9.000000000000000e-02
	-9.908420630867805e-16
	-3.448066770430310e-21
	-2.614935610556353e-16
	4.268634870452600e-12
	3.505798503462068e-10
	1.258085823405558e-11
	5.471478173516879e-01

 10	9.999999999999999e-02
	-9.814177722109863e-16
	-4.166778438904788e-21
	-2.795003292529344e-16
	5.639208187366031e-12
	4.631099079865435e-10
	1.662327120726195e-11
	5.471478173518222e-01

 11	1.100000000000000e-01
	-9.719239132256561e-16
	-4.976324673459565e-21
	-2.986023408064217e-16
	7.449282612013403e-12
	6.116914896125054e-10
	2.196292194699870e-11
	5.471478173520007e-01

 12	1.200000000000000e-01
	-9.623515040554050e-16
	-5.885833548024251e-21
	-3.188451266782652e-16
	9.839501786823139e-12
	8.078390997295109e-10
	2.901525141870253e-11
	5.471478173522349e-01

 13	1.300000000000000e-01
	-9.526920118134502e-16
	-6.905147480375422e-21
	-3.402732686198846e-16
	1.299536608668685e-11
	1.066726662132944e-09
	3.832830702212118e-11
	5.471478173525447e-01

 14	1.400000000000000e-01
	-9.429374304480126e-16
	-8.044854176158141e-21
	-3.629299355208091e-16
	1.716146169524872e-11
	1.408341200388902e-09
	5.062484451108183e-11
	5.471478173529546e-01

 15	1.500000000000000e-01
	-9.330803645838209e-16
	-9.316315118722486e-21
	-3.868563745714052e-16
	2.266016345087690e-11
	1.858995486558194e-09
	6.685768186710468e-11
	5.471478173534957e-01

 16	1.600000000000000e-01
	-9.231141188705310e-16
	-1.073169090888444e-20
	-4.120913592067504e-16
	2.991619761024960e-11
	2.453308951692999e-09
	8.828241772756128e-11
	5.471478173542083e-01

 17	1.700000000000000e-01
	-9.130327919027974e-16
	-1.230396271956287e-20
	-4.386705972004237e-16
	3.948886969325352e-11
	3.236798224580189e-09
	1.165528737156538e-10
	5.471478173551499e-01

 18	1.800000000000000e-01
	-9.028313735093671e-16
	-1.404694910615673e-20
	-4.666261038532889e-16
	5.211430290483312e-11
	4.269259552919575e-09
	1.538462299457812e-10
	5.471478173563924e-01

 19	1.900000000000000e-01
	-8.925058439269596e-16
	-1.597531740861827e-20
	-4.959855469480672e-16
	6.876072666651997e-11
	5.629177192642864e-09
	2.030268945728904e-10
	5.471478173580303e-01

 20	2.000000000000000e-01
	-8.820532730880400e-16
	-1.810458899985239e-20
	-5.267715719770850e-16
	9.070074215548554e-11
	7.419457125801838e-09
	2.678608031429955e-10
	5.471478173601892e-01

 21	2.100000000000000e-01
	-8.714719179705181e-16
	-2.045113768131628e-20
	-5.590011180435239e-16
	1.196056201562225e-10
	9.774867046728494e-09
	3.532952301349555e-10
	5.471478173630344e-01

 22	2.200000000000001e-01
	-8.607613156956323e-16
	-2.303218060417364e-20
	-5.926847367164299e-16
	1.576681122837995e-10
	1.287166460939665e-08
	4.658234921350519e-10
	5.471478173667813e-01

 23	2.300000000000001e-01
	-8.499223698328413e-16
	-2.586576120584842e-20
	-6.278259279020626e-16
	2.077620444133871e-10
	1.694001981154172e-08
	6.139593409910221e-10
	5.471478173717141e-01

 24	2.400000000000001e-01
	-8.389574271945535e-16
	-2.897072379893303e-20
	-6.644205083811735e-16
	2.736491825114274e-10
	2.227998742853561e-08
	8.088526311169951e-10
	5.471478173782048e-01

 25	2.500000000000001e-01
	-8.278703422960441e-16
	-3.236667963207923e-20
	-7.024560299463282e-16
	3.602465909159989e-10
	2.928196456226870e-08
	1.065086274691782e-09
	5.471478173867375e-01

 26	2.600000000000001e-01
	-8.166665266343715e-16
	-3.607396445892961e-20
	-7.419112649434420e-16
	4.739710129886461e-10
	3.845277876242213e-08
	1.401704874509215e-09
	5.471478173979467e-01

 27	2.700000000000001e-01
	-8.053529800198175e-16
	-4.011358789704416e-20
	-7.827557773676889e-16
	6.231807507252832e-10
	5.044879450808899e-08
	1.843538064050759e-09
	5.471478174126603e-01

 28	2.800000000000001e-01
	-7.939383013868351e-16
	-4.450717512784734e-20
	-8.249495973856381e-16
	8.187401274259299e-10
	6.611769873170389e-08
	2.422896802449731e-09
	5.471478174319538e-01

 29	2.900000000000001e-01
	-7.824326768268304e-16
	-4.927690177177574e-20
	-8.684430161721734e-16
	1.074736850501939e-09
	8.655092553410480e-08
	3.181738956413175e-09
	5.471478174572241e-01

 30	3.000000000000001e-01
	-7.708478430245315e-16
	-5.444542305916848e-20
	-9.131765162090144e-16
	1.409388317300639e-09
	1.131489995369740e-07
	4.174421686031486e-09
	5.471478174902809e-01

 31	3.100000000000001e-01
	-7.591970248384373e-16
	-6.003579869410269e-20
	-9.590808496748994e-16
	1.846178844729232e-09
	1.477024077072012e-07
	5.471182592333545e-09
	5.471478175334646e-01

 32	3.200000000000001e-01
	-7.474948464315811e-16
	-6.607141506125732e-20
	-1.006077274292063e-15
	2.415275460333545e-09
	1.924909425424290e-07
	7.162519348430933e-09
	5.471478175897875e-01

 33	3.300000000000001e-01
	-7.357572161110006e-16
	-7.257590664081838e-20
	-1.054077952053811e-15
	3.155274487342209e-09
	2.504047917331204e-07
	9.364668625539603e-09
	5.471478176631215e-01

 34	3.400000000000001e-01
	-7.240011858451115e-16
	-7.957307865948145e-20
	-1.102986511767124e-15
	4.115333541170157e-09
	3.250909896532902e-07
	1.222641956188483e-08
	5.471478177584206e-01

 35	3.500000000000001e-01
	-7.122447872630773e-16
	-8.708683310488296e-20
	-1.152698771470540e-15
	5.357742148268255e-09
	4.211292251651240e-07
	1.593753501827304e-08
	5.471478178820044e-01

 36	3.600000000000002e-01
	-7.005068467602786e-16
	-9.514110025689881e-20
	-1.203103611739358e-15
	6.960976956275782e-09
	5.442414805170325e-07
	2.073909609027731e-08
	5.471478180419007e-01

 37	3.700000000000002e-01
	-6.888067830977460e-16
	-1.037597778363393e-19
	-1.254083985901487e-15
	9.023271972116019e-09
	7.015406534572381e-07
	2.693613326942518e-08
	5.471478182482680e-01

 38	3.800000000000002e-01
	-6.771643915501335e-16
	-1.129666797384205e-19
	-1.305518048506093e-15
	1.166670775801548e-08
	9.018243010654364e-07
	3.491296379727737e-08
	5.471478185139045e-01

 39	3.900000000000002e-01
	-6.655996191892668e-16
	-1.227854961080590e-19
	-1.357280379256168e-15
	1.504178349440701e-08
	1.155921010432598e-06
	4.515172265558858e-08
	5.471478188548647e-01

 40	4.000000000000002e-01
	-6.541323362574615e-16
	-1.332397662345601e-19
	-1.409243276256695e-15
	1.933238049907254e-08
	1.477098558456987e-06
	5.825465784138332e-08
	5.471478192912058e-01

 41	4.100000000000002e-01
	-6.427821087649124e-16
	-1.443528654069293e-19
	-1.461278090024580e-15
	2.476095500584270e-08
	1.881544518159991e-06
	7.497086013833899e-08
	5.471478198478705e-01

 42	4.200000000000002e-01
	-6.315679774269425e-16
	-1.561480064934698e-19
	-1.513256568384247e-15
	3.159371424284527e-08
	2.388930211525189e-06
	9.622820709868501e-08
	5.471478205557611e-01

 43	4.300000000000002e-01
	-6.205082478403264e-16
	-1.686482566090016e-19
	-1.565052182201526e-15
	4.014543928821299e-08
	3.023065889377845e-06
	1.231713986781422e-07
	5.471478214529950e-01

 44	4.400000000000002e-01
	-6.096202963951159e-16
	-1.818765688293327e-19
	-1.616541402886302e-15
	5.078353138016619e-08
	3.812645683901305e-06
	1.572070008654758e-07
	5.471478225864135e-01

 45	4.500000000000002e-01
	-5.989203958522169e-16
	-1.958558285247264e-19
	-1.667604904655423e-15
	6.393079016435670e-08
	4.792061430659116e-06
	2.000563118947461e-07
	5.471478240133362e-01

 46	4.600000000000002e-01
	-5.884235638188026e-16
	-2.106089135299693e-19
	-1.718128667562258e-15
	8.006640056502004e-08
	6.002231388517661e-06
	2.538165036324299e-07
	5.471478258036022e-01

 47	4.700000000000003e-01
	-5.781434365615286e-16
	-2.261587670635569e-19
	-1.768004961091501e-15
	9.972462745010640e-08
	7.491341954698963e-06
	3.210297231391630e-07
	5.471478280418667e-01

 48	4.800000000000003e-01
	-5.680921697527400e-16
	-2.425284820632895e-19
	-1.817133192473736e-15
	1.234908077962038e-07
	9.315341396477811e-06
	4.047585308613785e-07
	5.471478308301169e-01

 49	4.900000000000003e-01
	-5.582803668894102e-16
	-2.597413954289452e-19
	-1.865420608562496e-15
	1.519943935471140e-07
	1.153796562108009e-05
	5.086641400805504e-07
	5.471478342902736e-01

 50	5.000000000000002e-01
	-5.487170352980006e-16
	-2.778211905565321e-19
	-1.912782844902422e-15
	1.858990268851321e-07
	1.423003658394359e-05
	6.370814990176543e-07
	5.471478385666941e-01

 51	5.100000000000002e-01
	-5.394095688755860e-16
	-2.967920065125989e-19
	-1.959144320280049e-15
	2.258899009620498e-07
	1.746777905958182e-05
	7.950826408300410e-07
	5.471478438282837e-01

 52	5.200000000000002e-01
	-5.303637560469252e-16
	-3.166785522267500e-19
	-2.004438479393271e-15
	2.726589388640668e-07
	2.132997420238096e-05
	9.885174841017516e-07
	5.471478502698502e-01

 53	5.300000000000002e-01
	-5.215838108591238e-16
	-3.375062241672038e-19
	-2.048607890143235e-15
	3.268885710680403e-07
	2.589391891092420e-05
	1.224020140030690e-06
	5.471478581123135e-01

 54	5.400000000000003e-01
	-5.130724247028138e-16
	-3.593012260995047e-19
	-2.091604205326125e-15
	3.892350684032924e-07
	3.123037579687765e-05
	1.508969510034663e-06
	5.471478676013994e-01

 55	5.500000000000003e-01
	-5.048308358455964e-16
	-3.820906897004948e-19
	-2.133388001110293e-15
	4.603124656848277e-07
	3.739793979698035e-05
	1.851396013819091e-06
	5.471478790045285e-01

 56	5.600000000000003e-01
	-4.968589137874456e-16
	-4.059027949972913e-19
	-2.173928506596372e-15
	5.406780793236209e-07
	4.443745393122008e-05
	2.259831637620454e-06
	5.471478926058241e-01

 57	5.700000000000003e-01
	-4.891552553897753e-16
	-4.307668898139622e-19
	-2.213203239985087e-15
	6.308204870144883e-07
	5.236721510112718e-05
	2.743107464352428e-06
	5.471479086993692e-01

 58	5.800000000000003e-01
	-4.817172897768056e-16
	-4.567136076261721e-19
	-2.251197567460759e-15
	7.311506210284511e-07
	6.117967724665668e-05
	3.310110216280193e-06
	5.471479275810984e-01

 59	5.900000000000003e-01
	-4.745413891431312e-16
	-4.837749834382627e-19
	-2.287904200905053e-15
	8.419963602533229e-07
	7.084017719732752e-05
	3.969515618911915e-06
	5.471479495399224e-01

 60	6.000000000000003e-01
	-4.676229828070268e-16
	-5.119845675006091e-19
	-2.323322650068512e-15
	9.636007244527728e-07
	8.128791420309056e-05
	4.729520244903252e-06
	5.471479748487924e-01

 61	6.100000000000003e-01
	-4.609566721067273e-16
	-5.413775368721063e-19
	-2.357458643938583e-15
	1.096123509018992e-06
	9.243907511919690e-05
	5.597594115525339e-06
	5.471480037564679e-01

 62	6.200000000000003e-01
	-4.545363440291236e-16
	-5.719908049995334e-19
	-2.390323534847056e-15
	1.239645974944713e-06
	1.041916908323279e-04
	6.580273667079203e-06
	5.471480364806155e-01

 63	6.300000000000003e-01
	-4.483552817710169e-16
	-6.038631296294949e-19
	-2.421933697447719e-15
	1.394178043485470e-06
	1.164315986953756e-04
	7.683009392162723e-06
	5.471480732027413e-01

 64	6.400000000000003e-01
	-4.424062707483335e-16
	-6.370352194889682e-19
	-2.452309933151706e-15
	1.559667345786126e-06
	1.290388026517469e-04
	8.910075686930886e-06
	5.471481140651839e-01

 65	6.500000000000004e-01
	-4.366816988768048e-16
	-6.715498402673383e-19
	-2.481476889007779e-15
	1.736009444172400e-06
	1.418935646925009e-04
	1.026454346688468e-05
	5.471481591702073e-01

 66	6.600000000000004e-01
	-4.311736502394035e-16
	-7.074519205072212e-19
	-2.509462498421601e-15
	1.923058566652185e-06
	1.548816981160487e-04
	1.174831007259695e-05
	5.471482085809910e-01

 67	6.700000000000004e-01
	-4.258739915243396e-16
	-7.447886580658416e-19
	-2.536297449573339e-15
	2.120638267364740e-06
	1.678987207762053e-04
	1.336217660713361e-05
	5.471482623242093e-01

 68	6.800000000000004e-01
	-4.207744508580778e-16
	-7.836096278455092e-19
	-2.562014685956527e-15
	2.328551528527381e-06
	1.808527213763754e-04
	1.510596041371212e-05
	5.471483203937778e-01

 69	6.900000000000004e-01
	-4.158666888679187e-16
	-8.239668915141421e-19
	-2.586648942151149e-15
	2.546589938651118e-06
	1.936659603714645e-04
	1.697862980800135e-05
	5.471483827553388e-01

 70	7.000000000000004e-01
	-4.111423619871988e-16
	-8.659151099471979e-19
	-2.610236316778099e-15
	2.774541703636656e-06
	2.062753501484978e-04
	1.897844905305404e-05
	5.471484493510849e-01

 71	7.100000000000004e-01
	-4.065931781636111e-16
	-9.095116591238655e-19
	-2.632813883569557e-15
	3.012198360782511e-06
	2.186320316926632e-04
	2.110312341594114e-05
	5.471485201045984e-01

 72	7.200000000000004e-01
	-4.022109452488404e-16
	-9.548167502065056e-19
	-2.654419340631684e-15
	3.259360163131594e-06
	2.307002919453176e-04
	2.334993648653364e-05
	5.471485949254159e-01

 73	7.300000000000004e-01
	-3.979876124380855e-16
	-1.001893554523194e-18
	-2.675090697267621e-15
	3.515840178813796e-06
	2.424560582239900e-04
	2.571587436577202e-05
	5.471486737131689e-01

 74	7.400000000000004e-01
	-3.939153051936854e-16
	-1.050808334163572e-18
	-2.694865997161431e-15
	3.781467206012416e-06
	2.538851757542884e-04
	2.819773355662443e-05
	5.471487563611733e-01

 75	7.500000000000004e-01
	-3.899863541310970e-16
	-1.101630578887371e-18
	-2.713783076285414e-15
	4.056087640093861e-06
	2.649816328044093e-04
	3.079221124885273e-05
	5.471488427594402e-01

 76	7.600000000000005e-01
	-3.861933183709520e-16
	-1.154433150035948e-18
	-2.731879353570242e-15
	4.339566448001907e-06
	2.757458538233287e-04
	3.349597811230103e-05
	5.471489327970972e-01

 77	7.700000000000005e-01
	-3.825290038708538e-16
	-1.209292432130127e-18
	-2.749191652155482e-15
	4.631787409684968e-06
	2.861831401641295e-04
	3.630573470877341e-05
	5.471490263642639e-01

 78	7.800000000000005e-01
	-3.789864772479283e-16
	-1.266288492833434e-18
	-2.765756048902281e-15
	4.932652780711480e-06
	2.963023036113144e-04
	3.921825325029394e-05
	5.471491233534510e-01

 79	7.900000000000005e-01
	-3.755590755904225e-16
	-1.325505251960397e-18
	-2.781607749786820e-15
	5.242082517691810e-06
	3.061145112041383e-04
	4.223040674352701e-05
	5.471492236605217e-01

 80	8.000000000000005e-01
	-3.722404127362944e-16
	-1.387030660212941e-18
	-2.796780988788756e-15
	5.560013191519679e-06
	3.156323405911458e-04
	4.533918764273533e-05
	5.471493271853191e-01

 81	8.100000000000005e-01
	-3.690243824708199e-16
	-1.450956888336931e-18
	-2.811308947931980e-15
	5.886396695038372e-06
	3.248690324332393e-04
	4.854171805740061e-05
	5.471494338320037e-01

 82	8.200000000000005e-01
	-3.659051590736443e-16
	-1.517380527224626e-18
	-2.825223549062955e-15
	6.221198832287851e-06
	3.338379035261114e-04
	5.183525337582815e-05
	5.471495435091729e-01

 83	8.300000000000005e-01
	-3.628771962900035e-16
	-1.586402783457347e-18
	-2.838554714254458e-15
	6.564397779788470e-06
	3.425518492710982e-04
	5.521718015622111e-05
	5.471496561297947e-01

 84	8.400000000000005e-01
	-3.599352226558530e-16
	-1.658129724299955e-18
	-2.851333292220987e-15
	6.915982741912781e-06
	3.510233664854586e-04
	5.868501231214932e-05
	5.471497716110754e-01

 85	8.500000000000005e-01
	-3.570742361093117e-16
	-1.732672522223388e-18
	-2.863587804888399e-15
	7.275952579852208e-06
	3.592640270273294e-04
	6.223638417102071e-05
	5.471498898742336e-01

 86	8.600000000000005e-01
	-3.542894979579493e-16
	-1.810147696970529e-18
	-2.875345564492076e-15
	7.644314436511079e-06
	3.672844821790778e-04
	6.586904124520716e-05
	5.471500108441898e-01

 87	8.700000000000006e-01
	-3.515765253124894e-16
	-1.890677382837776e-18
	-2.886632677281053e-15
	8.021082510063089e-06
	3.750944158551157e-04
	6.958083074684882e-05
	5.471501344492490e-01

 88	8.800000000000006e-01
	-3.489310827112760e-16
	-1.974389611870278e-18
	-2.897474055231202e-15
	8.406276936194167e-06
	3.827025441037128e-04
	7.336969187859750e-05
	5.471502606207818e-01

 89	8.900000000000006e-01
	-3.463491731364301e-16
	-2.061418613908483e-18
	-2.907893434456913e-15
	8.799922784726398e-06
	3.901166477298837e-04
	7.723364629505379e-05
	5.471503892929053e-01

 90	9.000000000000006e-01
	-3.438270285964761e-16
	-2.151905134475615e-18
	-2.917913399147522e-15
	9.202049171724124e-06
	3.973436274348562e-04
	8.117078901100642e-05
	5.471505204021792e-01

 91	9.100000000000006e-01
	-3.413611004262711e-16
	-2.245996771554506e-18
	-2.927555409984197e-15
	9.612688484797872e-06
	4.043895731266600e-04
	8.517927993811752e-05
	5.471506538873214e-01

 92	9.200000000000006e-01
	-3.389480494332240e-16
	-2.343848332363966e-18
	-2.936839836114285e-15
	1.003187571692163e-05
	4.112598409841292e-04
	8.925733615816496e-05
	5.471507896889583e-01

 93	9.300000000000006e-01
	-3.365847359991073e-16
	-2.445622211313849e-18
	-2.945785989872462e-15
	1.045964790246838e-05
	4.179591334615683e-04
	9.340322498508060e-05
	5.471509277493850e-01

 94	9.400000000000006e-01
	-3.342682102290976e-16
	-2.551488790389518e-18
	-2.954412163541491e-15
	1.089604364817226e-05
	4.244915787293436e-04
	9.761525782665984e-05
	5.471510680123680e-01

 95	9.500000000000006e-01
	-3.319957022239751e-16
	-2.661626863296126e-18
	-2.962735667539629e-15
	1.134110275120598e-05
	4.308608070913913e-04
	1.018917848272239e-04
	5.471512104229616e-01

 96	9.600000000000006e-01
	-3.297646125375360e-16
	-2.776224084775096e-18
	-2.970772869507263e-15
	1.179486589639470e-05
	4.370700227413023e-04
	1.062311902521969e-04
	5.471513549273578e-01

 97	9.700000000000006e-01
	-3.275725028690594e-16
	-2.895477446595471e-18
	-2.978539233842326e-15
	1.225737442467974e-05
	4.431220698508697e-04
	1.106318885624900e-04
	5.471515014727547e-01

 98	9.800000000000006e-01
	-3.254170870300580e-16
	-3.019593781816959e-18
	-2.986049361302943e-15
	1.272867016522076e-05
	4.490194924623537e-04
	1.150923211190273e-04
	5.471516500072433e-01

 99	9.900000000000007e-01
	-3.232962222153055e-16
	-3.148790299021713e-18
	-2.993317028357070e-15
	1.320879532392148e-05
	4.547645880080876e-04
	1.196109534543152e-04
	5.471518004797241e-01

 100	1.000000000000001e+00
	-3.212079006002178e-16
	-3.283295148319371e-18
	-3.000355226013206e-15
	1.369779242164008e-05
	4.603594545340217e-04
	1.241862730475442e-04
	5.471519528398239e-01

 101	1.010000000000001e+00
	-3.191502412798673e-16
	-3.423348021041642e-18
	-3.007176197914040e-15
	1.419570427586041e-05
	4.658060318788980e-04
	1.288167875413934e-04
	5.471521070378449e-01

 102	1.020000000000001e+00
	-3.171214825591547e-16
	-3.569200785162927e-18
	-3.013791477516757e-15
	1.470257402013573e-05
	4.711061371758090e-04
	1.335010233418674e-04
	5.471522630247116e-01

 103	1.030000000000001e+00
	-3.151199745988448e-16
	-3.721118158608682e-18
	-3.020211924220233e-15
	1.521844515614609e-05
	4.762614951122823e-04
	1.382375245465201e-04
	5.471524207519382e-01

 104	1.040000000000001e+00
	-3.131441724181027e-16
	-3.879378422746374e-18
	-3.026447758330923e-15
	1.574336163372895e-05
	4.812737634204218e-04
	1.430248521510036e-04
	5.471525801716031e-01

 105	1.050000000000001e+00
	-3.111926292508592e-16
	-4.044274178493535e-18
	-3.032508594786507e-15
	1.627736795473425e-05
	4.861445540791034e-04
	1.478615834886518e-04
	5.471527412363273e-01

 106	1.060000000000001e+00
	-3.092639902506072e-16
	-4.216113147623894e-18
	-3.038403475579668e-15
	1.682050929701858e-05
	4.908754507030475e-04
	1.527463118626086e-04
	5.471529038992647e-01

 107	1.070000000000001e+00
	-3.073569865360645e-16
	-4.395219022007710e-18
	-3.044140900844217e-15
	1.737283165532617e-05
	4.954680225742061e-04
	1.576776463346730e-04
	5.471530681140927e-01

 108	1.080000000000001e+00
	-3.054704295684084e-16
	-4.581932363683359e-18
	-3.049728858582595e-15
	1.793438199619613e-05
	4.999238357436673e-04
	1.626542116394536e-04
	5.471532338350131e-01

 109	1.090000000000001e+00
	-3.036032058494689e-16
	-4.776611558825856e-18
	-3.055174853027776e-15
	1.850520842440720e-05
	5.042444616002406e-04
	1.676746481965487e-04
	5.471534010167484e-01

 110	1.100000000000001e+00
	-3.017542719292890e-16
	-4.979633828856184e-18
	-3.060485931644322e-15
	1.908536035879316e-05
	5.084314832675658e-04
	1.727376121972625e-04
	5.471535696145444e-01

 111	1.110000000000001e+00
	-2.999226497107723e-16
	-5.191396302116854e-18
	-3.065668710782919e-15
	1.967488871556508e-05
	5.124865001565379e-04
	1.778417757458052e-04
	5.471537395841810e-01

 112	1.120000000000001e+00
	-2.981074220386711e-16
	-5.412317149731829e-18
	-3.070729400010461e-15
	2.027384609754433e-05
	5.164111309654260e-04
	1.829858270380285e-04
	5.471539108819723e-01

 113	1.130000000000001e+00
	-2.963077285599284e-16
	-5.642836789466330e-18
	-3.075673825144056e-15
	2.088228698795082e-05
	5.202070153869920e-04
	1.881684705634948e-04
	5.471540834647736e-01

 114	1.140000000000001e+00
	-2.945227618423131e-16
	-5.883419161605204e-18
	-3.080507450022065e-15
	2.150026794760538e-05
	5.238758147508156e-04
	1.933884273191171e-04
	5.471542572899937e-01

 115	1.150000000000001e+00
	-2.927517637383364e-16
	-6.134553081080465e-18
	-3.085235397049046e-15
	2.212784781459841e-05
	5.274192118001863e-04
	1.986444350247514e-04
	5.471544323155934e-01

 116	1.160000000000001e+00
	-2.909940219816171e-16
	-6.396753670292090e-18
	-3.089862466554149e-15
	2.276508790564461e-05
	5.308389097764752e-04
	2.039352483329618e-04
	5.471546085001009e-01

 117	1.170000000000001e+00
	-2.892488670031158e-16
	-6.670563877286112e-18
	-3.094393155004341e-15
	2.341205221849657e-05
	5.341366309599557e-04
	2.092596390268101e-04
	5.471547858026148e-01

 118	1.180000000000001e+00
	-2.875156689550137e-16
	-6.956556084176158e-18
	-3.098831672114962e-15
	2.406880763492076e-05
	5.373141147944888e-04
	2.146163962008830e-04
	5.471549641828084e-01

 119	1.190000000000001e+00
	-2.857938349303767e-16
	-7.255333810917308e-18
	-3.103181956900670e-15
	2.473542412385874e-05
	5.403731157042810e-04
	2.200043264219529e-04
	5.471551436009388e-01

 120	1.200000000000001e+00
	-2.840828063672028e-16
	-7.567533519764040e-18
	-3.107447692709806e-15
	2.541197494449801e-05
	5.433154006939153e-04
	2.254222538666657e-04
	5.471553240178483e-01

 121	1.210000000000001e+00
	-2.823820566258933e-16
	-7.893826525964427e-18
	-3.111632321284874e-15
	2.609853684906886e-05
	5.461427468078777e-04
	2.308690204344776e-04
	5.471555053949725e-01

 122	1.220000000000001e+00
	-2.806910887296894e-16
	-8.234921020455696e-18
	-3.115739055891038e-15
	2.679519028526248e-05
	5.488569385127213e-04
	2.363434858347695e-04
	5.471556876943350e-01

 123	1.230000000000001e+00
	-2.790094332581023e-16
	-8.591564210531846e-18
	-3.119770893553605e-15
	2.750201959823483e-05
	5.514597650536049e-04
	2.418445276476223e-04
	5.471558708785574e-01

 124	1.240000000000001e+00
	-2.773366463838799e-16
	-8.964544584646876e-18
	-3.123730626444180e-15
	2.821911323222245e-05
	5.539530178271194e-04
	2.473710413582198e-04
	5.471560549108597e-01

 125	1.250000000000001e+00
	-2.756723080445353e-16
	-9.354694307691946e-18
	-3.127620852453848e-15
	2.894656393185036e-05
	5.563384878038371e-04
	2.529219403652229e-04
	5.471562397550542e-01

 126	1.260000000000001e+00
	-2.740160202400042e-16
	-9.762891753235266e-18
	-3.131443984990158e-15
	2.968446894325605e-05
	5.586179630267849e-04
	2.584961559637339e-04
	5.471564253755520e-01

 127	1.270000000000001e+00
	-2.723674054484408e-16
	-1.019006417934078e-17
	-3.135202262033192e-15
	3.043293021519724e-05
	5.607932262058914e-04
	2.640926373037258e-04
	5.471566117373593e-01

 128	1.280000000000001e+00
	-2.707261051526969e-16
	-1.063719055466328e-17
	-3.138897754484229e-15
	3.119205460034497e-05
	5.628660524232670e-04
	2.697103513249725e-04
	5.471567988060734e-01

 129	1.290000000000001e+00
	-2.690917784704696e-16
	-1.110530454156552e-17
	-3.142532373838925e-15
	3.196195405699441e-05
	5.648382069598114e-04
	2.753482826696406e-04
	5.471569865478809e-01

 130	1.300000000000001e+00
	-2.674641008815776e-16
	-1.159549764298691e-17
	-3.146107879215183e-15
	3.274274585145408e-05
	5.667114432500195e-04
	2.810054335737952e-04
	5.471571749295547e-01

 131	1.310000000000001e+00
	-2.658427630462746e-16
	-1.210892251971915e-17
	-3.149625883764279e-15
	3.353455276139646e-05
	5.684875009688574e-04
	2.866808237391215e-04
	5.471573639184507e-01

 132	1.320000000000001e+00
	-2.642274697089340e-16
	-1.264679648458828e-17
	-3.153087860492106e-15
	3.433750328047603e-05
	5.701681042521249e-04
	2.923734901861970e-04
	5.471575534825008e-01

 133	1.330000000000001e+00
	-2.626179386818610e-16
	-1.321040517979686e-17
	-3.156495147515879e-15
	3.515173182453629e-05
	5.717549600497377e-04
	2.980824870906368e-04
	5.471577435902073e-01

 134	1.340000000000001e+00
	-2.610138999043924e-16
	-1.380110644332225e-17
	-3.159848952780132e-15
	3.597737893974658e-05
	5.732497566097837e-04
	3.038068856034409e-04
	5.471579342106392e-01

 135	1.350000000000001e+00
	-2.594150945728341e-16
	-1.442033436979155e-17
	-3.163150358254334e-15
	3.681459151302247e-05
	5.746541620899536e-04
	3.095457736568315e-04
	5.471581253134233e-01

 136	1.360000000000001e+00
	-2.578212743371522e-16
	-1.506960357061680e-17
	-3.166400323633251e-15
	3.766352298509719e-05
	5.759698232919945e-04
	3.152982557568302e-04
	5.471583168687391e-01

 137	1.370000000000001e+00
	-2.562322005606965e-16
	-1.575051363738380e-17
	-3.169599689559887e-15
	3.852433356662326e-05
	5.771983645141218e-04
	3.210634527637823e-04
	5.471585088473113e-01

 138	1.380000000000001e+00
	-2.546476436395813e-16
	-1.646475381148784e-17
	-3.172749180389743e-15
	3.939719045769510e-05
	5.783413865158040e-04
	3.268405016619831e-04
	5.471587012204000e-01

 139	1.390000000000001e+00
	-2.530673823786890e-16
	-1.721410786179593e-17
	-3.175849406514251e-15
	4.028226807119215e-05
	5.794004655890002e-04
	3.326285553194925e-04
	5.471588939597952e-01

 140	1.400000000000001e+00
	-2.514912034215519e-16
	-1.800045917064057e-17
	-3.178900866260411e-15
	4.117974826035332e-05
	5.803771527297112e-04
	3.384267822391761e-04
	5.471590870378090e-01

 141	1.410000000000001e+00
	-2.499189007317057e-16
	-1.882579602668928e-17
	-3.181903947383087e-15
	4.208982055100100e-05
	5.812729729036193e-04
	3.442343663019481e-04
	5.471592804272631e-01

 142	1.420000000000001e+00
	-2.483502751233748e-16
	-1.969221712114736e-17
	-3.184858928165944e-15
	4.301268237884280e-05
	5.820894243995814e-04
	3.500505065031178e-04
	5.471594741014832e-01

 143	1.430000000000001e+00
	-2.467851338396514e-16
	-2.060193724129857e-17
	-3.187765978146916e-15
	4.394853933228515e-05
	5.828279782648124e-04
	3.558744166826882e-04
	5.471596680342911e-01

 144	1.440000000000001e+00
	-2.452232901765667e-16
	-2.155729315252510e-17
	-3.190625158484010e-15
	4.489760540120580e-05
	5.834900778157190e-04
	3.617053252504012e-04
	5.471598621999934e-01

 145	1.450000000000001e+00
	-2.436645631517309e-16
	-2.256074965663604e-17
	-3.193436421977629e-15
	4.586010323213319e-05
	5.840771382185175e-04
	3.675424749062454e-04
	5.471600565733702e-01

 146	1.460000000000001e+00
	-2.421087772164563e-16
	-2.361490581051301e-17
	-3.196199612766134e-15
	4.683626439029713e-05
	5.845905461339635e-04
	3.733851223571033e-04
	5.471602511296708e-01

 147	1.470000000000001e+00
	-2.405557620104717e-16
	-2.472250128471991e-17
	-3.198914465712250e-15
	4.782632962901368e-05
	5.850316594207503e-04
	3.792325380301431e-04
	5.471604458446006e-01

 148	1.480000000000001e+00
	-2.390053521585885e-16
	-2.588642283675124e-17
	-3.201580605499140e-15
	4.883054916688468e-05
	5.854018068923791e-04
	3.850840057835258e-04
	5.471606406943119e-01

 149	1.490000000000001e+00
	-2.374573871088226e-16
	-2.710971086798188e-17
	-3.204197545456551e-15
	4.984918297329293e-05
	5.857022881225500e-04
	3.909388226149301e-04
	5.471608356553954e-01

 150	1.500000000000001e+00
	-2.359117110116940e-16
	-2.839556602706848e-17
	-3.206764686139345e-15
	5.088250106268548e-05
	5.859343732943700e-04
	3.967962983683569e-04
	5.471610307048679e-01

 151	1.510000000000001e+00
	-2.343681726405208e-16
	-2.974735581549049e-17
	-3.209281313683238e-15
	5.193078379814462e-05
	5.860993030889528e-04
	4.026557554396267e-04
	5.471612258201671e-01

 152	1.520000000000001e+00
	-2.328266253526990e-16
	-3.116862114309706e-17
	-3.211746597965223e-15
	5.299432220475534e-05
	5.861982886092160e-04
	4.085165284809537e-04
	5.471614209791367e-01

 153	1.530000000000001e+00
	-2.312869270920094e-16
	-3.266308277286850e-17
	-3.214159590599626e-15
	5.407341829328369e-05
	5.862325113349462e-04