Title: **.subckt gm_id_nmos
Date: Sat Jun 12 17:27:44  2021
Plotname: DC transfer characteristic
Flags: real
No. Variables: 8
No. Points: 181
Variables:
	0	v(v-sweep)	voltage
	1	@m.xm1.msky130_fd_pr__nfet_01v8_lvt[cgb]	capacitance
	2	@m.xm1.msky130_fd_pr__nfet_01v8_lvt[cgd]	capacitance
	3	@m.xm1.msky130_fd_pr__nfet_01v8_lvt[cgs]	capacitance
	4	@m.xm1.msky130_fd_pr__nfet_01v8_lvt[gds]	admittance
	5	@m.xm1.msky130_fd_pr__nfet_01v8_lvt[gm]	admittance
	6	i(@m.xm1.msky130_fd_pr__nfet_01v8_lvt[id])	current
	7	v(@m.xm1.msky130_fd_pr__nfet_01v8_lvt[vth])	voltage
Values:
 0	0.000000000000000e+00
	-3.169491559745245e-14
	-5.477357362007135e-19
	-7.030819362904637e-15
	7.307732420799105e-13
	8.793015144020105e-11
	2.762919241928982e-12
	4.572448933692719e-01

 1	1.000000000000000e-02
	-3.135614257952621e-14
	-5.930271205859462e-19
	-7.599792987238073e-15
	1.004580279118959e-12
	1.208538770370403e-10
	3.798135710462082e-12
	4.572448933692765e-01

 2	2.000000000000000e-02
	-3.101438439645128e-14
	-6.420315599390759e-19
	-8.211290072988666e-15
	1.380890284191901e-12
	1.660895423400331e-10
	5.220899683269428e-12
	4.572448933692873e-01

 3	3.000000000000000e-02
	-3.066906788633585e-14
	-6.950403993554835e-19
	-8.867789510152610e-15
	1.898023092906269e-12
	2.282316666839872e-10
	7.176093775665938e-12
	4.572448933692995e-01

 4	4.000000000000000e-02
	-3.031962406040099e-14
	-7.523652830177739e-19
	-9.571803533460353e-15
	2.608591496379564e-12
	3.135835098902087e-10
	9.862641688019648e-12
	4.572448933693163e-01

 5	5.000000000000000e-02
	-2.996549154373034e-14
	-8.143391673468417e-19
	-1.032585815411255e-14
	3.584812530887012e-12
	4.307890335602712e-10
	1.355359099051713e-11
	4.572448933693393e-01

 6	6.000000000000000e-02
	-2.960612062933272e-14
	-8.813173229628272e-19
	-1.113247013161276e-14
	4.925780372664180e-12
	5.916964500337972e-10
	1.862361392335186e-11
	4.572448933693714e-01

 7	7.000000000000001e-02
	-2.924097796329016e-14
	-9.536783143844590e-19
	-1.199412031830214e-14
	6.767417976937655e-12
	8.125369392063999e-10
	2.558663893628164e-11
	4.572448933694143e-01

 8	8.000000000000000e-02
	-2.886955186454462e-14
	-1.031824945218382e-18
	-1.291322328106230e-14
	9.296082332589686e-12
	1.115531506382491e-09
	3.514730131362940e-11
	4.572448933694739e-01

 9	9.000000000000000e-02
	-2.849135826492799e-14
	-1.116185155529707e-18
	-1.389209319822189e-14
	1.276714587392769e-11
	1.531078224601548e-09
	4.827121792334068e-11
	4.572448933695566e-01

 10	9.999999999999999e-02
	-2.810594723321635e-14
	-1.207212857204932e-18
	-1.493290614630566e-14
	1.753034395733109e-11
	2.100724299162558e-09
	6.628086229828675e-11
	4.572448933696683e-01

 11	1.100000000000000e-01
	-2.771291002138596e-14
	-1.305388692492640e-18
	-1.603765903117857e-14
	2.406430399049227e-11
	2.881196335237559e-09
	9.098618957421615e-11
	4.572448933698230e-01

 12	1.200000000000000e-01
	-2.731188654221110e-14
	-1.411220700615945e-18
	-1.720812558019454e-14
	3.302350529738309e-11
	3.949852585049469e-09
	1.248623265141715e-10
	4.572448933700342e-01

 13	1.300000000000000e-01
	-2.690257315555161e-14
	-1.525244877475551e-18
	-1.844580999314525e-14
	4.530202258719495e-11
	5.412038428520983e-09
	1.712908418474894e-10
	4.572448933703250e-01

 14	1.400000000000000e-01
	-2.648473060721648e-14
	-1.648025614088467e-18
	-1.975189904498274e-14
	6.211985724095627e-11
	7.410977394160787e-09
	2.348866490775771e-10
	4.572448933707213e-01

 15	1.500000000000000e-01
	-2.605819193062462e-14
	-1.780156000605142e-18
	-2.112721363485661e-14
	8.513955256595681e-11
	1.014102175894221e-08
	3.219398387074805e-10
	4.572448933712647e-01

 16	1.600000000000000e-01
	-2.562287008952604e-14
	-1.922257984587957e-18
	-2.257216097393831e-14
	1.166232295739867e-10
	1.386532632868680e-08
	4.410111323475919e-10
	4.572448933720085e-01

 17	1.700000000000000e-01
	-2.517876511204535e-14
	-2.074982374748898e-18
	-2.408668878637614e-14
	1.596432870256543e-10
	1.893930257619287e-08
	6.037317080065053e-10
	4.572448933730255e-01

 18	1.800000000000000e-01
	-2.472597044479960e-14
	-2.239008684558667e-18
	-2.567024304928433e-14
	2.183639018012327e-10
	2.584156148347845e-08
	8.258734250933036e-10
	4.572448933744129e-01

 19	1.900000000000000e-01
	-2.426467824346211e-14
	-2.415044814023943e-18
	-2.732173090349545e-14
	2.984152415711181e-10
	3.521446080317843e-08
	1.128774553580181e-09
	4.572448933763046e-01

 20	2.000000000000000e-01
	-2.379518331543599e-14
	-2.603826572431246e-18
	-2.903949041150783e-14
	4.073880055384125e-10
	4.791682655210559e-08
	1.541229507207408e-09
	4.572448933788814e-01

 21	2.100000000000000e-01
	-2.331788544345013e-14
	-2.806117049860045e-18
	-3.082126880861285e-14
	5.554824762339949e-10
	6.509189832090109e-08
	2.101979168659664e-09
	4.572448933823839e-01

 22	2.200000000000001e-01
	-2.283328984745451e-14
	-3.022705850630606e-18
	-3.266421077658104e-14
	7.563534413234709e-10
	8.825401776832661e-08
	2.862971266744463e-09
	4.572448933871378e-01

 23	2.300000000000001e-01
	-2.234200558680957e-14
	-3.254408207375658e-18
	-3.456485806014394e-14
	1.028199570913802e-09
	1.193979884887523e-07
	3.893597578955014e-09
	4.572448933935753e-01

 24	2.400000000000001e-01
	-2.184474176493969e-14
	-3.502063999877810e-18
	-3.651916144454208e-14
	1.395152105081165e-09
	1.611353215631363e-07
	5.286155574024067e-09
	4.572448934022739e-01

 25	2.500000000000001e-01
	-2.134230147255888e-14
	-3.766536707949824e-18
	-3.852250572458145e-14
	1.889021392145503e-09
	2.168616859098538e-07
	7.162824946455857e-09
	4.572448934139970e-01

 26	2.600000000000001e-01
	-2.083557349015830e-14
	-4.048712332181310e-18
	-4.056974783654096e-14
	2.551458514153219e-09
	2.909597776759634e-07
	9.684492333101383e-09
	4.572448934297483e-01

 27	2.700000000000001e-01
	-2.032552186133179e-14
	-4.349498320089508e-18
	-4.265526781592017e-14
	3.436579659440236e-09
	3.890415515120456e-07
	1.306179837992589e-08
	4.572448934508444e-01

 28	2.800000000000001e-01
	-1.981317354041892e-14
	-4.669822537862829e-18
	-4.477303171460169e-14
	4.614078963603089e-09
	5.182334807734139e-07
	1.756881927373351e-08
	4.572448934789970e-01

 29	2.900000000000001e-01
	-1.929960440501665e-14
	-5.010632329299645e-18
	-4.691666509292251e-14
	6.172816718694443e-09
	6.875085429280119e-07
	2.355983125054370e-08
	4.572448935164198e-01

 30	3.000000000000001e-01
	-1.878592400026488e-14
	-5.372893703612897e-18
	-4.907953522930828e-14
	8.224810036164247e-09
	9.080693763921244e-07
	3.148964652846794e-08
	4.572448935659530e-01

 31	3.100000000000001e-01
	-1.827325944205569e-14
	-5.757590692445917e-18
	-5.125483979484098e-14
	1.090946998074752e-08
	1.193788862519349e-06
	4.193806167559782e-08
	4.572448936312185e-01

 32	3.200000000000001e-01
	-1.776273894610767e-14
	-6.165724913785226e-18
	-5.343569945003965e-14
	1.439782447809382e-08
	1.561717107149367e-06
	5.563903509950447e-08
	4.572448937168010e-01

 33	3.300000000000001e-01
	-1.725547546631032e-14
	-6.598315376569100e-18
	-5.561525165643420e-14
	1.889634772812952e-08
	2.032666177050648e-06
	7.351531322631021e-08
	4.572448938284651e-01

 34	3.400000000000001e-01
	-1.675255091778534e-14
	-7.056398554885177e-18
	-5.778674296697947e-14
	2.464990030864881e-08
	2.631882937707320e-06
	9.671933810877446e-08
	4.572448939734076e-01

 35	3.500000000000001e-01
	-1.625500142850620e-14
	-7.541028754970678e-18
	-5.994361716731478e-14
	3.194319399901129e-08
	3.389810777182878e-06
	1.266813346223066e-07
	4.572448941605643e-01

 36	3.600000000000002e-01
	-1.576380401061764e-14
	-8.053278792068206e-18
	-6.207959687436808e-14
	4.110016208873431e-08
	4.342916354595617e-06
	1.651653752990422e-07
	4.572448944009526e-01

 37	3.700000000000002e-01
	-1.527986497284125e-14
	-8.594240987857739e-18
	-6.418875654072376e-14
	5.248067024186044e-08
	5.534512347070788e-06
	2.143337747435997e-07
	4.572448947080812e-01

 38	3.800000000000002e-01
	-1.480401031364517e-14
	-9.165028492980259e-18
	-6.626558523651614e-14
	6.647416662265507e-08
	7.015441382238271e-06
	2.768191612579241e-07
	4.572448950983938e-01

 39	3.900000000000002e-01
	-1.433697824683727e-14
	-9.766776933370839e-18
	-6.830503805499274e-14
	8.349014571412821e-08
	8.844409913747836e-06
	3.558018443902459e-07
	4.572448955917560e-01

 40	4.000000000000002e-01
	-1.387941392258001e-14
	-1.040064637396170e-17
	-7.030257548169867e-14
	1.039456645801284e-07
	1.108769634796766e-05
	4.550876399153329e-07
	4.572448962119408e-01

 41	4.100000000000002e-01
	-1.343186632271535e-14
	-1.106782358898204e-17
	-7.225419055023384e-14
	1.282505529557965e-07
	1.381793766902428e-05
	5.791784050143438e-07
	4.572448969870691e-01

 42	4.200000000000002e-01
	-1.299478723407557e-14
	-1.176952462468541e-17
	-7.415642405338811e-14
	1.567913306887451e-07
	1.711175539418509e-05
	7.333247872795630e-07
	4.572448979499381e-01

 43	4.300000000000002e-01
	-1.256853214038210e-14
	-1.250699763795016e-17
	-7.600636846632447e-14
	1.899151158490774e-07
	2.104613205502106e-05
	9.235489729118839e-07
	4.572448991381671e-01

 44	4.400000000000002e-01
	-1.215336282440925e-14
	-1.328152599280874e-17
	-7.780166155404422e-14
	2.279149172780500e-07
	2.569368165520026e-05
	1.156625438645570e-06
	4.572449005940700e-01

 45	4.500000000000002e-01
	-1.174945143812233e-14
	-1.409443159654050e-17
	-7.954047087097638e-14
	2.710176285100461e-07
	3.111722577602381e-05
	1.440010484712199e-06
	4.572449023642236e-01

 46	4.600000000000002e-01
	-1.135688577920543e-14
	-1.494707845741014e-17
	-8.122147051486938e-14
	3.193757832591435e-07
	3.736432024135076e-05
	1.781716670722520e-06
	4.572449044986778e-01

 47	4.700000000000003e-01
	-1.097567550661009e-14
	-1.584087644734533e-17
	-8.284381157415960e-14
	3.730637361206559e-07
	4.446250152843872e-05
	2.190135464156395e-06
	4.572449070498517e-01

 48	4.800000000000003e-01
	-1.060575903366801e-14
	-1.677728525469503e-17
	-8.440708771579972e-14
	4.320784592317661e-07
	5.241598743812367e-05
	2.673819072158311e-06
	4.572449100711627e-01

 49	4.900000000000003e-01
	-1.024701085271505e-14
	-1.775781851454649e-17
	-8.591129730998550e-14
	4.963446700150643e-07
	6.120436758768862e-05
	3.241238903307502e-06
	4.572449136155297e-01

 50	5.000000000000002e-01
	-9.899249067704388e-15
	-1.878404810678987e-17
	-8.735680339171040e-14
	5.657235967213961e-07
	7.078350007152866e-05
	3.900541936294356e-06
	4.572449177338417e-01

 51	5.100000000000002e-01
	-9.562242938612377e-15
	-1.985760861505390e-17
	-8.874429262921555e-14
	6.400244010189074e-07
	8.108847046960513e-05
	4.659326631515698e-06
	4.572449224735629e-01

 52	5.200000000000002e-01
	-9.235720271419454e-15
	-2.098020194270354e-17
	-9.007473431830317e-14
	7.190171390439446e-07
	9.203815594192820e-05
	5.524456944041328e-06
	4.572449278775678e-01

 53	5.300000000000002e-01
	-8.919374518224426e-15
	-2.215360208517667e-17
	-9.134934025988958e-14
	8.024461545409183e-07
	1.035407380647100e-04
	6.501927314196788e-06
	4.572449339833007e-01

 54	5.400000000000003e-01
	-8.612871482111971e-15
	-2.337966006098123e-17
	-9.256952621523459e-14
	8.900429352086697e-07
	1.154994525669486e-04
	7.596784550494130e-06
	4.572449408222873e-01

 55	5.500000000000003e-01
	-8.315855549589224e-15
	-2.466030900660407e-17
	-9.373687547621910e-14
	9.815376846791743e-07
	1.278179404617658e-04
	8.813105687016376e-06
	4.572449484199925e-01

 56	5.600000000000003e-01
	-8.027955398933877e-15
	-2.599756944337190e-17
	-9.485310494223027e-14
	1.076669120578421e-06
	1.404047319018859e-04
	1.015402532273733e-05
	4.572449567959978e-01

 57	5.700000000000003e-01
	-7.748789155159615e-15
	-2.739355472691942e-17
	-9.592003396427089e-14
	1.175192261379872e-06
	1.531765986718179e-04
	1.162180227664735e-05
	4.572449659644131e-01

 58	5.800000000000003e-01
	-7.477968981280233e-15
	-2.885047669236798e-17
	-9.693955610290743e-14
	1.276884180291504e-06
	1.660607062149657e-04
	1.321791375068998e-05
	4.572449759344634e-01

 59	5.900000000000003e-01
	-7.215105111126379e-15
	-3.037065151058538e-17
	-9.791361385041651e-14
	1.381547866320967e-06
	1.789956497885940e-04
	1.494316531274903e-05
	4.572449867111836e-01

 60	6.000000000000003e-01
	-6.959809341285227e-15
	-3.195650577300869e-17
	-9.884417628878484e-14
	1.489014436919510e-06
	1.919315582444061e-04
	1.679780639936521e-05
	4.572449982961290e-01

 61	6.100000000000003e-01
	-6.711698009053208e-15
	-3.361058282448239e-17
	-9.973321959310092e-14
	1.599143998626585e-06
	2.048294945579715e-04
	1.878164314187345e-05
	4.572450106880909e-01

 62	6.200000000000003e-01
	-6.470394489942615e-15
	-3.533554936542217e-17
	-1.005827102429308e-13
	1.711825462664519e-06
	2.176603853081240e-04
	2.089414265600123e-05
	4.572450238837391e-01

 63	6.300000000000003e-01
	-6.235531252629092e-15
	-3.713420234636840e-17
	-1.013945907707271e-13
	1.826975603925293e-06
	2.304036860633219e-04
	2.313452514838263e-05
	4.572450378782021e-01

 64	6.400000000000003e-01
	-6.006751511638386e-15
	-3.900947617969431e-17
	-1.021707678543252e-13
	1.944537615907529e-06
	2.430459496140612e-04
	2.550184207027910e-05
	4.572450526655565e-01

 65	6.500000000000004e-01
	-5.783710518906130e-15
	-4.096445029489050e-17
	-1.029131025482396e-13
	2.064479370371804e-06
	2.555794198181804e-04
	2.799503999730170e-05
	4.572450682392203e-01

 66	6.600000000000004e-01
	-5.566076534937303e-15
	-4.300235706549320e-17
	-1.036234024439888e-13
	2.186791545624957e-06
	2.680007325314820e-04
	3.061301093069016e-05
	4.572450845922723e-01

 67	6.700000000000004e-01
	-5.353531518937908e-15
	-4.512659013738152e-17
	-1.043034155514018e-13
	2.311485745777760e-06
	2.803097704667311e-04
	3.335463035084995e-05
	4.572451017176896e-01

 68	6.800000000000004e-01
	-5.145771575250442e-15
	-4.734071318987207e-17
	-1.049548256993102e-13
	2.438592697385151e-06
	2.925086921981720e-04
	3.621878468238709e-05
	4.572451196085157e-01

 69	6.900000000000004e-01
	-4.942507190917906e-15
	-4.964846916279499e-17
	-1.055792492639283e-13
	2.568160580446635e-06
	3.046011366627874e-04
	3.920438993160826e-05
	4.572451382579780e-01

 70	7.000000000000004e-01
	-4.743463296405387e-15
	-5.205378998457957e-17
	-1.061782330454970e-13
	2.700253527732307e-06
	3.165915923113644e-04
	4.231040320498272e-05
	4.572451576595648e-01

 71	7.100000000000004e-01
	-4.548379178573899e-15
	-5.456080683832235e-17
	-1.067532531275155e-13
	2.834950309173528e-06
	3.284849131181501e-04
	4.553582867009504e-05
	4.572451778070519e-01

 72	7.200000000000004e-01
	-4.357008272038546e-15
	-5.717386100487700e-17
	-1.073057145673837e-13
	2.972343205730261e-06
	3.402859605612276e-04
	4.887971932454016e-05
	4.572451986945262e-01

 73	7.300000000000004e-01
	-4.169117852140043e-15
	-5.989751532422283e-17
	-1.078369517819860e-13
	3.112537068778436e-06
	3.519993502113903e-04
	5.234117572524199e-05
	4.572452203163683e-01

 74	7.400000000000004e-01
	-3.984488649976489e-15
	-6.273656631871250e-17
	-1.083482295062071e-13
	3.255648555760322e-06
	3.636292827363564e-04
	5.591934262184872e-05
	4.572452426672369e-01

 75	7.500000000000004e-01
	-3.802914407326838e-15
	-6.569605702436458e-17
	-1.088407442162921e-13
	3.401805529838873e-06
	3.751794412102203e-04
	5.961340424583674e-05
	4.572452657420347e-01

 76	7.600000000000005e-01
	-3.624201386871381e-15
	-6.878129057906347e-17
	-1.093156259231139e-13
	3.551146609952011e-06
	3.866529391035167e-04
	6.342257883810008e-05
	4.572452895358791e-01

 77	7.700000000000005e-01
	-3.448167850898336e-15
	-7.199784461949048e-17
	-1.097739402526552e-13
	3.703820857469555e-06
	3.980523058813099e-04
	6.734611285437025e-05
	4.572453140440637e-01

 78	7.800000000000005e-01
	-3.274643519678919e-15
	-7.535158654172739e-17
	-1.102166907422659e-13
	3.859987586224401e-06
	4.093794995512206e-04
	7.138327516932861e-05
	4.572453392620195e-01

 79	7.900000000000005e-01
	-3.103469018898590e-15
	-7.884868968388313e-17
	-1.106448212914893e-13
	4.019816283732151e-06
	4.206359376702275e-04
	7.553335150475632e-05
	4.572453651852866e-01

 80	8.000000000000005e-01
	-2.934495323938636e-15
	-8.249565049271515e-17
	-1.110592187154657e-13
	4.183486632722155e-06
	4.318225401918550e-04
	7.979563923178560e-05
	4.572453918094752e-01

 81	8.100000000000005e-01
	-2.767583207401399e-15
	-8.629930674010607e-17
	-1.114607153571447e-13
	4.351188623531461e-06
	4.429397791074896e-04
	8.416944263922487e-05
	4.572454191302376e-01

 82	8.200000000000005e-01
	-2.602602695489468e-15
	-9.026685684857964e-17
	-1.118500864151646e-13
	4.523122748898247e-06
	4.539877100662982e-04
	8.865406870396160e-05
	4.572454471432471e-01

 83	8.300000000000005e-01
	-2.439432574657289e-15
	-9.440587942450559e-17
	-1.122280278256110e-13
	4.699500233381195e-06
	4.649659205544082e-04
	9.324882230768849e-05
	4.572454758441611e-01

 84	8.400000000000005e-01
	-2.277959822002390e-15
	-9.872435626726771e-17
	-1.125952646244385e-13
	4.880543429446806e-06
	4.758740090624805e-04
	9.795300447880107e-05
	4.572455052286123e-01

 85	8.500000000000005e-01
	-2.118079097107004e-15
	-1.032306959221202e-16
	-1.129524374371865e-13
	5.066486242138866e-06
	4.867111769444127e-04
	1.027659101252028e-04
	4.572455352921970e-01

 86	8.600000000000005e-01
	-1.959692290188256e-15
	-1.079337576822409e-16
	-1.133001452887960e-13
	5.257574576317903e-06
	4.974764280989333e-04
	1.076868251467424e-04
	4.572455660304546e-01

 87	8.700000000000006e-01
	-1.802708065466110e-15
	-1.128428777410730e-16
	-1.136389479998099e-13
	5.454066872795447e-06
	5.081686097726699e-04
	1.127150246682409e-04
	4.572455974388565e-01

 88	8.800000000000006e-01
	-1.647041426424525e-15
	-1.179678969900284e-16
	-1.139693684944047e-13
	5.656234705987309e-06
	5.187864491088552e-04
	1.178497716593237e-04
	4.572456295127988e-01

 89	8.900000000000006e-01
	-1.492613303343276e-15
	-1.233191905700078e-16
	-1.142918950139403e-13
	5.864363443106053e-06
	5.293285854590853e-04
	1.230903158984740e-04
	4.572456622475949e-01

 90	9.000000000000006e-01
	-1.339350163170010e-15
	-1.289076992921533e-16
	-1.146069832318565e-13
	6.078752965716263e-06
	5.397935986033387e-04
	1.284358932395736e-04
	4.572456956384717e-01

 91	9.100000000000006e-01
	-1.187183641553136e-15
	-1.347449630506858e-16
	-1.149150582675211e-13
	6.299718455222810e-06
	5.501800331066841e-04
	1.338857251411049e-04
	4.572457296805658e-01

 92	9.200000000000006e-01
	-1.036050196659520e-15
	-1.408431563585455e-16
	-1.152165165980997e-13
	6.527591244562173e-06
	5.604864190908996e-04
	1.394390184207414e-04
	4.572457643689233e-01

 93	9.300000000000006e-01
	-8.858907842477522e-16
	-1.472151261448301e-16
	-1.155117278687024e-13
	6.762719739032342e-06
	5.707112897244356e-04
	1.450949652009823e-04
	4.572457996984957e-01

 94	9.400000000000006e-01
	-7.366505533525679e-16
	-1.538744319618380e-16
	-1.158010366020206e-13
	7.005470409840129e-06
	5.808531957416510e-04
	1.508527430145643e-04
	4.572458356641462e-01

 95	9.500000000000006e-01
	-5.882785618501072e-16
	-1.608353887587337e-16
	-1.160847638094212e-13
	7.256228864573702e-06
	5.909107172973985e-04
	1.567115150414889e-04
	4.572458722606481e-01

 96	9.600000000000006e-01
	-4.407275111160544e-16
	-1.681131123885918e-16
	-1.163632085060482e-13
	7.515400999435120e-06
	6.008824734497418e-04
	1.626704304524927e-04
	4.572459094826856e-01

 97	9.700000000000006e-01
	-2.939534989512214e-16
	-1.757235680257804e-16
	-1.166366491329253e-13
	7.783414238700124e-06
	6.107671295450023e-04
	1.687286248366286e-04
	4.572459473248593e-01

 98	9.800000000000006e-01
	-1.479157899295226e-16
	-1.836836216812907e-16
	-1.169053448893697e-13
	8.060718867520490e-06
	6.205634027576630e-04
	1.748852206932702e-04
	4.572459857816886e-01

 99	9.900000000000007e-01
	-2.576602318768234e-18
	-1.920110950147924e-16
	-1.171695369792502e-13
	8.347789464854200e-06
	6.302700660144685e-04
	1.811393279712468e-04
	4.572460248476126e-01

 100	1.000000000000001e+00
	1.420990892690342e-16
	-2.007248236537698e-16
	-1.174294497747528e-13
	8.645126444010633e-06
	6.398859505086311e-04
	1.874900446400047e-04
	4.572460645169957e-01

 101	1.010000000000001e+00
	2.861437363245468e-16
	-2.098447192420838e-16
	-1.176852919013893e-13
	8.953257709038256e-06
	6.494099469870734e-04
	1.939364572796288e-04
	4.572461047841345e-01

 102	1.020000000000001e+00
	4.295873847891679e-16
	-2.193918354527183e-16
	-1.179372572479896e-13
	9.272740435968923e-06
	6.588410059717277e-04
	2.004776416782797e-04
	4.572461456432546e-01

 103	1.030000000000001e+00
	5.724578300793265e-16
	-2.293884382121863e-16
	-1.181855259053857e-13
	9.604162988773114e-06
	6.681781370552955e-04
	2.071126634271033e-04
	4.572461870885176e-01

 104	1.040000000000001e+00
	7.147807595282312e-16
	-2.398580803970554e-16
	-1.184302650374251e-13
	9.948146980782360e-06
	6.774204073928631e-04
	2.138405785039771e-04
	4.572462291140287e-01

 105	1.050000000000001e+00
	8.565798829518665e-16
	-2.508256812762199e-16
	-1.186716296878490e-13
	1.030534949330689e-05
	6.865669394933241e-04
	2.206604338385979e-04
	4.572462717138329e-01

 106	1.060000000000001e+00
	9.978770520057176e-16
	-2.623176109858210e-16
	-1.189097635264518e-13
	1.067646546422295e-05
	6.956169083986689e-04
	2.275712678523442e-04
	4.572463148819252e-01

 107	1.070000000000001e+00
	1.138692368961546e-15
	-2.743617803368963e-16
	-1.191447995377995e-13
	1.106223026043919e-05
	7.045695383249955e-04
	2.345721109671922e-04
	4.572463586122468e-01

 108	1.080000000000001e+00
	1.279044285491706e-15
	-2.869877362687712e-16
	-1.193768606556361e-13
	1.146342244937558e-05
	7.134240988261268e-04
	2.416619860785973e-04
	4.572464028986960e-01

 109	1.090000000000001e+00
	1.418949692009980e-15
	-3.002267632738814e-16
	-1.196060603459505e-13
	1.188086678591882e-05
	7.221799005293401e-04
	2.488399089878445e-04
	4.572464477351229e-01

 110	1.100000000000001e+00
	1.558423998076544e-15
	-3.141119911315187e-16
	-1.198325031415120e-13
	1.231543743275392e-05
	7.308362904822943e-04
	2.561048887897722e-04
	4.572464931153402e-01

 111	1.110000000000001e+00
	1.697481204337922e-15
	-3.286785092991008e-16
	-1.200562851305247e-13
	1.276806143353246e-05
	7.393926471411455e-04
	2.634559282121606e-04
	4.572465390331162e-01

 112	1.120000000000001e+00
	1.836133966431858e-15
	-3.439634883191808e-16
	-1.202774944018794e-13
	1.323972246002133e-05
	7.478483750215024e-04
	2.708920239032898e-04
	4.572465854821837e-01

 113	1.130000000000001e+00
	1.974393651253247e-15
	-3.600063086086745e-16
	-1.204962114493292e-13
	1.373146485620160e-05
	7.562028990265284e-04
	2.784121666643879e-04
	4.572466324562380e-01

 114	1.140000000000001e+00
	2.112270385939493e-15
	-3.768486970026202e-16
	-1.207125095367499e-13
	1.424439800425597e-05
	7.644556584597922e-04
	2.860153416237804e-04
	4.572466799489414e-01

 115	1.150000000000001e+00
	2.249773099901521e-15
	-3.945348714281850e-16
	-1.209264550264982e-13
	1.477970103950776e-05
	7.726061007243919e-04
	2.937005283496018e-04
	4.572467279539183e-01

 116	1.160000000000001e+00
	2.386909560193073e-15
	-4.131116940847252e-16
	-1.211381076727294e-13
	1.533862794366087e-05
	7.806536747043441e-04
	3.014667008979103e-04
	4.572467764647596e-01

 117	1.170000000000001e+00
	2.523686400482042e-15
	-4.326288335017525e-16
	-1.213475208813991e-13
	1.592251304814730e-05
	7.885978238190871e-04
	3.093128277929970e-04
	4.572468254750230e-01

 118	1.180000000000001e+00
	2.660109143858553e-15
	-4.531389358378829e-16
	-1.215547419385396e-13
	1.653277698201742e-05
	7.964379787371868e-04
	3.172378719365473e-04
	4.572468749782305e-01

 119	1.190000000000001e+00
	2.796182219688439e-15
	-4.746978057693425e-16
	-1.217598122082758e-13
	1.717093310161690e-05
	8.041735497308298e-04
	3.252407904421636e-04
	4.572469249678670e-01

 120	1.200000000000001e+00
	2.931908974696873e-15
	-4.973645972951704e-16
	-1.219627673019303e-13
	1.783859444227767e-05
	8.118039186483843e-04
	3.333205343915414e-04
	4.572469754373795e-01

 121	1.210000000000001e+00
	3.067291678445996e-15
	-5.212020147566801e-16
	-1.221636372194653e-13
	1.853748123540820e-05
	8.193284304782361e-04
	3.414760485083535e-04
	4.572470263801766e-01

 122	1.220000000000001e+00
	3.202331523351496e-15
	-5.462765243297054e-16
	-1.223624464644072e-13
	1.926942903768884e-05
	8.267463844730646e-04
	3.497062707456026e-04
	4.572470777896242e-01

 123	1.230000000000001e+00
	3.337028619366346e-15
	-5.726585761979643e-16
	-1.225592141333237e-13
	2.003639752254620e-05
	8.340570247998823e-04
	3.580101317818803e-04
	4.572471296590433e-01

 124	1.240000000000001e+00
	3.471381983449497e-15
	-6.004228375527679e-16
	-1.227539539808464e-13
	2.084047998766776e-05
	8.412595306772917e-04
	3.663865544215935e-04
	4.572471819817037e-01

 125	1.250000000000001e+00
	3.605389523925530e-15
	-6.296484364864727e-16
	-1.229466744611776e-13
	2.168391363599355e-05
	8.483530059577156e-04
	3.748344528938251e-04
	4.572472347508238e-01

 126	1.260000000000001e+00
	3.739048019838917e-15
	-6.604192167519729e-16
	-1.231373787469753e-13
	2.256909069132692e-05
	8.553364681086801e-04
	3.833527320440604e-04
	4.572472879595638e-01

 127	1.270000000000001e+00
	3.872353095403537e-15
	-6.928240032463077e-16
	-1.233260647264876e-13
	2.349857041337518e-05
	8.622088365436719e-04
	3.919402864125126e-04
	4.572473416010153e-01

 128	1.280000000000001e+00
	4.005299189652708e-15
	-7.269568779399713e-16
	-1.235127249797879e-13
	2.447509208057229e-05
	8.689689202497130e-04
	4.005959991922876e-04
	4.572473956682045e-01

 129	1.290000000000001e+00
	4.137879521405888e-15
	-7.629174658121648e-16
	-1.236973467349891e-13
	2.550158901232414e-05
	8.756154046556234e-04
	4.093187410600824e-04
	4.572474501540762e-01

 130	1.300000000000001e+00
	4.270086049680933e-15
	-8.008112301633228e-16
	-1.238799118053268e-13
	2.658120370519939e-05
	8.821468376820724e-04
	4.181073688715222e-04
	4.572475050514895e-01

 131	1.310000000000001e+00
	4.401909429704919e-15
	-8.407497764558802e-16
	-1.240603965080697e-13
	2.771730415986597e-05
	8.885616149121571e-04
	4.269607242126597e-04
	4.572475603532096e-01

 132	1.320000000000001e+00
	4.533338964706331e-15
	-8.828511635799969e-16
	-1.242387715662892e-13
	2.891350147698971e-05
	8.948579638194228e-04
	4.358776317985219e-04
	4.572476160518927e-01

 133	1.330000000000001e+00
	4.664362553706202e-15
	-9.272402211486375e-16
	-1.244150019946214e-13
	3.017366880055334e-05
	9.010339269893169e-04
	4.448568977089546e-04
	4.572476721400822e-01

 134	1.340000000000001e+00
	4.794966635577481e-15
	-9.740488710933872e-16
	-1.245890469703028e-13
	3.150196168572806e-05
	9.070873442702531e-04
	4.538973074513979e-04
	4.572477286101908e-01

 135	1.350000000000001e+00
	4.925136129693986e-15
	-1.023416451454921e-15
	-1.247608596909185e-13
	3.290283996503803e-05
	9.130158337920282e-04
	4.629976238395492e-04
	4.572477854544925e-01

 136	1.360000000000001e+00
	5.054854373561445e-15
	-1.075490039837232e-15
	-1.249303872205122e-13
	3.438109118051574e-05
	9.188167717929089e-04
	4.721565846763189e-04
	4.572478426651003e-01

 137	1.370000000000001e+00
	5.184103057900759e-15
	-1.130424773520618e-15
	-1.250975703259456e-13
	3.594185564010072e-05
	9.244872712025413e-04
	4.813729002288681e-04
	4.572479002339589e-01

 138	1.380000000000001e+00
	5.312862159747066e-15
	-1.188384162701734e-15
	-1.252623433056763e-13
	3.759065314281260e-05
	9.300241589368391e-04
	4.906452504830816e-04
	4.572479581528233e-01

 139	1.390000000000001e+00
	5.441109874232514e-15
	-1.249540392750276e-15
	-1.254246338134460e-13
	3.933341139814375e-05
	9.354239518737393e-04
	4.999722821644167e-04
	4.572480164132387e-01

 140	1.400000000000001e+00
	5.568822545840899e-15
	-1.314074610740073e-15
	-1.255843626797339e-13
	4.117649613939380e-05
	9.406828314962151e-04
	5.093526055118492e-04
	4.572480750065263e-01

 141	1.410000000000001e+00
	5.695974600056775e-15
	-1.382177190829208e-15
	-1.257414437342407e-13
	4.312674289678475e-05
	9.457966172123142e-04
	5.187847907916357e-04
	4.572481339237529e-01

 142	1.420000000000001e+00
	5.822538476478024e-15
	-1.454047972333792e-15
	-1.258957836331175e-13
	4.519149035234787e-05
	9.507607383924094e-04
	5.282673645378018e-04
	4.572481931557162e-01

 143	1.430000000000001e+00
	5.948484564626156e-15
	-1.529896463567198e-15
	-1.260472816951501e-13
	4.737861514271016e-05
	9.555702052030826e-04
	5.377988055069344e-04
	4.572482526929124e-01

 144	1.440000000000001e+00
	6.073781143861812e-15
	-1.609942003712097e-15
	-1.261958297516368e-13
	4.969656790559941e-05
	9.602195783664992e-04
	5.473775403357968e-04
	4.572483125255137e-01

 145	1.450000000000001e+00
	6.198394329003554e-15
	-1.694413874165801e-15
	-1.263413120152641e-13
	5.215441027846948e-05
	9.647029380361772e-04
	5.570019388919534e-04
	4.572483726433392e-01

 146	1.460000000000001e+00
	6.322288023443340e-15
	-1.783551349968851e-15
	-1.264836049738760e-13
	5.476185245008977e-05
	9.690138520565316e-04
	5.666703093098342e-04
	4.572484330358175e-01

 147	1.470000000000001e+00
	6.445423881758665e-15
	-1.877603681110924e-15
	-1.266225773156335e-13
	5.752929073498487e-05
	9.731453439671300e-04
	5.763808927077628e-04
	4.572484936919654e-01

 148	1.480000000000001e+00
	6.567761284027851e-15
	-1.976829992732889e-15
	-1.267580898926761e-13
	6.046784448287714e-05
	9.770898612258515e-04
	5.861318575857229e-04
	4.572485546003392e-01

 149	1.490000000000001e+00
	6.689257324259769e-15
	-2.081499092540443e-15
	-1.268899957309810e-13
	6.358939144725993e-05
	9.808392442603570e-04
	5.959212939089186e-04
	4.572486157490098e-01

 150	1.500000000000001e+00
	6.809866815546123e-15
	-2.191889173148068e-15
	-1.270181400946828e-13
	6.690660051578490e-05
	9.843846971174645e-04
	6.057472068891636e-04
	4.572486771255160e-01

 151	1.510000000000001e+00
	6.929542314721772e-15
	-2.308287396624659e-15
	-1.271423606136038e-13
	7.043296044755288e-05
	9.877167606667933e-04
	6.156075104846706e-04
	4.572487387168290e-01

 152	1.520000000000001e+00
	7.048234169474063e-15
	-2.430989348261697e-15
	-1.272624874831639e-13
	7.418280296708706e-05
	9.908252895302768e-04
	6.255000206494628e-04
	4.572488005093042e-01

 153	1.530000000000001e+00
	7.165890590954388e-15
	-2.560298346582435e-15
	-1.273783437461118e-13
	7.817131823178766e-05
	9.936994341528508e-04
	6.354224483765300e-04
	4.572488624886450e-01

 154	1.540000000000001e+00