Title: **.subckt gm_id_nmos
Date: Wed Jun 16 15:44:50  2021
Plotname: DC transfer characteristic
Flags: real
No. Variables: 8
No. Points: 181
Variables:
	0	v(v-sweep)	voltage
	1	@m.xm1.msky130_fd_pr__nfet_01v8_lvt[cgb]	capacitance
	2	@m.xm1.msky130_fd_pr__nfet_01v8_lvt[cgd]	capacitance
	3	@m.xm1.msky130_fd_pr__nfet_01v8_lvt[cgs]	capacitance
	4	@m.xm1.msky130_fd_pr__nfet_01v8_lvt[gds]	admittance
	5	@m.xm1.msky130_fd_pr__nfet_01v8_lvt[gm]	admittance
	6	i(@m.xm1.msky130_fd_pr__nfet_01v8_lvt[id])	current
	7	v(@m.xm1.msky130_fd_pr__nfet_01v8_lvt[vth])	voltage
Values:
 0	0.000000000000000e+00
	-7.119119204340541e-14
	-1.294201683346586e-18
	-1.633331148219569e-14
	6.403846456372503e-13
	9.667726854517827e-11
	2.961476655562669e-12
	4.446342125148689e-01

 1	1.000000000000000e-02
	-7.043252591983850e-14
	-1.403982946587811e-18
	-1.768601190119191e-14
	8.875663578779272e-13
	1.339644621730675e-10
	4.104577618144324e-12
	4.446342125148735e-01

 2	2.000000000000000e-02
	-6.966600868894990e-14
	-1.522982620703342e-18
	-1.914164255528627e-14
	1.230062064388503e-12
	1.856113215213543e-10
	5.688463720252467e-12
	4.446342125148796e-01

 3	3.000000000000000e-02
	-6.889032061404926e-14
	-1.651939246507653e-18
	-2.070620840914072e-14
	1.704564877879751e-12
	2.571343522549177e-10
	7.882826289443018e-12
	4.446342125148888e-01

 4	4.000000000000000e-02
	-6.810415577363459e-14
	-1.791643522123577e-18
	-2.238576708896178e-14
	2.361855749904813e-12
	3.561608182237974e-10
	1.092250913916663e-11
	4.446342125149027e-01

 5	5.000000000000000e-02
	-6.730623173509203e-14
	-1.942940868464405e-18
	-2.418637388106624e-14
	3.272188454712231e-12
	4.932310537995480e-10
	1.513241426569689e-11
	4.446342125149196e-01

 6	6.000000000000000e-02
	-6.649530083820940e-14
	-2.106733945908114e-18
	-2.611401745864332e-14
	4.532717977417513e-12
	6.829024252214214e-10
	2.096185980205540e-11
	4.446342125149442e-01

 7	7.000000000000001e-02
	-6.567016311488781e-14
	-2.283985090294691e-18
	-2.817454601118314e-14
	6.277738332645696e-12
	9.452662975199306e-10
	2.903193500250810e-11
	4.446342125149780e-01

 8	8.000000000000000e-02
	-6.482968082642519e-14
	-2.475718633351226e-18
	-3.037358368609210e-14
	8.692777155563583e-12
	1.308029204747483e-09
	4.020070004098136e-11
	4.446342125150240e-01

 9	9.000000000000000e-02
	-6.397279454401055e-14
	-2.683023070080103e-18
	-3.271643755048643e-14
	1.203397539008186e-11
	1.809362740951050e-09
	5.565284418586514e-11
	4.446342125150886e-01

 10	9.999999999999999e-02
	-6.309854063157731e-14
	-2.907053033729005e-18
	-3.520799564480509e-14
	1.665469409191239e-11
	2.501797575003452e-09
	7.702279892999493e-11
	4.446342125151792e-01

 11	1.100000000000000e-01
	-6.220606991365393e-14
	-3.149031037932226e-18
	-3.785261712664466e-14
	2.304197934503259e-11
	3.457530482605918e-09
	1.065635029371804e-10
	4.446342125153022e-01

 12	1.200000000000000e-01
	-6.129466722597397e-14
	-3.410248945699897e-18
	-4.065401598593403e-14
	3.186643451257920e-11
	4.775635412146869e-09
	1.473772885919392e-10
	4.446342125154726e-01

 13	1.300000000000000e-01
	-6.036377145611646e-14
	-3.692069126382700e-18
	-4.361514033798918e-14
	4.405026339619590e-11
	6.591827279526434e-09
	2.037310257974316e-10
	4.446342125157077e-01

 14	1.400000000000000e-01
	-5.941299558925809e-14
	-3.995925264764905e-18
	-4.673804984887899e-14
	6.085983887484257e-11
	9.091627899201681e-09
	2.814851101666982e-10
	4.446342125160335e-01

 15	1.500000000000000e-01
	-5.844214618543498e-14
	-4.323322791240167e-18
	-5.002379439046744e-14
	8.403121218475351e-11
	1.252803452005858e-08
	3.886755873785634e-10
	4.446342125164821e-01

 16	1.600000000000000e-01
	-5.745124163577829e-14
	-4.675838908717326e-18
	-5.347229752596869e-14
	1.159396088960826e-10
	1.724509871358202e-08
	5.363011979819787e-10
	4.446342125170982e-01

 17	1.700000000000000e-01
	-5.644052848316982e-14
	-5.055122200557646e-18
	-5.708224885067538e-14
	1.598272566982620e-10
	2.370918924095140e-08
	7.393829854034358e-10
	4.446342125179470e-01

 18	1.800000000000000e-01
	-5.541049505520280e-14
	-5.462891814393905e-18
	-6.085100951282853e-14
	2.201079323034611e-10
	3.255013297898005e-08
	1.018383907008290e-09
	4.446342125191139e-01

 19	1.900000000000000e-01
	-5.436188165159674e-14
	-5.900936228974240e-18
	-6.477453537216597e-14
	3.027714181261750e-10
	4.461488884057205e-08
	1.401100108827624e-09
	4.446342125207132e-01

 20	2.000000000000000e-01
	-5.329568656073606e-14
	-6.371111624896913e-18
	-6.884732217808892e-14
	4.159165312531121e-10
	6.103688253825958e-08
	1.925164444651622e-09
	4.446342125229041e-01

 21	2.100000000000000e-01
	-5.221316725540711e-14
	-6.875339894832220e-18
	-7.306237683368433e-14
	5.704472454450364e-10
	8.332456950489964e-08
	2.641336347509843e-09
	4.446342125258977e-01

 22	2.200000000000001e-01
	-5.111583623811950e-14
	-7.415606344000035e-18
	-7.741121823758508e-14
	7.809720924823309e-10
	1.134731372696605e-07
	3.617789663318425e-09
	4.446342125299792e-01

 23	2.300000000000001e-01
	-5.000545117031037e-14
	-7.993957146624603e-18
	-8.188391036236783e-14
	1.066951492966890e-09
	1.541034368501810e-07
	4.945650227042754e-09
	4.446342125355301e-01

 24	2.400000000000001e-01
	-4.888399912212885e-14
	-8.612496638090154e-18
	-8.646912915651476e-14
	1.454139346038139e-09
	2.086321880282005e-07
	6.746075833667828e-09
	4.446342125430570e-01

 25	2.500000000000001e-01
	-4.775367501138572e-14
	-9.273384534813166e-18
	-9.115426359014673e-14
	1.976361829518949e-09
	2.814772299515973e-07
	9.179210507458684e-09
	4.446342125532278e-01

 26	2.600000000000001e-01
	-4.661685454905801e-14
	-9.978833183711289e-18
	-9.592554976748144e-14
	2.677664942741515e-09
	3.783011865454018e-07
	1.245538070371496e-08
	4.446342125669224e-01

 27	2.700000000000001e-01
	-4.547606225915094e-14
	-1.073110494995159e-17
	-1.007682355837267e-13
	3.614839348280417e-09
	5.062966474088841e-07
	1.684893315860448e-08
	4.446342125852891e-01

 28	2.800000000000001e-01
	-4.433393537590247e-14
	-1.153250985491366e-17
	-1.056667720047501e-13
	4.860293003387132e-09
	6.745162694283541e-07
	2.271514593347616e-08
	4.446342126098107e-01

 29	2.900000000000001e-01
	-4.319318462446542e-14
	-1.238540357572117e-17
	-1.106050257913812e-13
	6.505186341148000e-09
	8.942526086352977e-07
	3.051068415846084e-08
	4.446342126423974e-01

 30	3.000000000000001e-01
	-4.205655304719845e-14
	-1.329218591321461e-17
	-1.155665074673930e-13
	8.662671220331495e-09
	1.179475315464127e-06
	4.081813302449982e-08
	4.446342126854855e-01

 31	3.100000000000001e-01
	-4.092677413469526e-14
	-1.425529982703261e-17
	-1.205346076162957e-13
	1.147098761210348e-08
	1.547337124895185e-06
	5.437523560982653e-08
	4.446342127421574e-01

 32	3.200000000000001e-01
	-3.980653055136022e-14
	-1.527723112494649e-17
	-1.254928342390567e-13
	1.509608105286262e-08
	2.018762877209959e-06
	7.210959365556886e-08
	4.446342128162897e-01

 33	3.300000000000001e-01
	-3.869841470770771e-14
	-1.636050887937548e-17
	-1.304250439359197e-13
	1.973332591006522e-08
	2.619133470780689e-06
	9.517972671407879e-08
	4.446342129127288e-01

 34	3.400000000000001e-01
	-3.760489232910521e-14
	-1.750770662785367e-17
	-1.353156600829426e-13
	2.560789645820918e-08
	3.379062930815289e-06
	1.250234479527393e-07
	4.446342130374819e-01

 35	3.500000000000001e-01
	-3.652827001194161e-14
	-1.872144439698473e-17
	-1.401498719204681e-13
	3.297334291977054e-08
	4.335234899165998e-06
	1.634143548664188e-07
	4.446342131979638e-01

 36	3.600000000000002e-01
	-3.547066755578110e-14
	-2.000439157201524e-17
	-1.449138094943455e-13
	4.210802097647227e-08
	5.531210973430277e-06
	2.125266450874072e-07
	4.446342134032652e-01

 37	3.700000000000002e-01
	-3.443399562923959e-14
	-2.135927061741574e-17
	-1.495946906111351e-13
	5.330919598887207e-08
	7.018051302804343e-06
	2.750072422803559e-07
	4.446342136644481e-01

 38	3.800000000000002e-01
	-3.341993908445493e-14
	-2.278886163854434e-17
	-1.541809372963538e-13
	6.688488416011878e-08
	8.854513148057302e-06
	3.540522401380160e-07
	4.446342139948743e-01

 39	3.900000000000002e-01
	-3.242994599602330e-14
	-2.429600776121700e-17
	-1.586622605900694e-13
	8.314377024388948e-08
	1.110654283631706e-05
	4.534820443267788e-07
	4.446342144105133e-01

 40	4.000000000000002e-01
	-3.146522227919149e-14
	-2.588362129523306e-17
	-1.630297137942037e-13
	1.023838103603327e-07
	1.384578321359479e-05
	5.778067195435541e-07
	4.446342149302196e-01

 41	4.100000000000002e-01
	-3.052673155015686e-14
	-2.755469063992138e-17
	-1.672757154320917e-13
	1.248803421235704e-07
	1.714690820087825e-05
	7.322706420384892e-07
	4.446342155759143e-01

 42	4.200000000000002e-01
	-2.961519973629057e-14
	-2.931228788462308e-17
	-1.713940441422147e-13
	1.508746449213753e-07
	2.108377373419121e-05
	9.228644942690409e-07
	4.446342163726419e-01

 43	4.300000000000002e-01
	-2.873112383012242e-14
	-3.115957705468642e-17
	-1.753798084734478e-13
	1.805639001353125e-07
	2.572461563588290e-05
	1.156293703062052e-06
	4.446342173484326e-01

 44	4.400000000000002e-01
	-2.787478410874775e-14
	-3.309982295378205e-17
	-1.792293950666010e-13
	2.140933927280373e-07
	3.112677613892343e-05
	1.439896003890408e-06
	4.446342185339586e-01

 45	4.500000000000002e-01
	-2.704625910776147e-14
	-3.513640055588887e-17
	-1.829403990016731e-13
	2.515515870004760e-07
	3.733163210226723e-05
	1.781506666971588e-06
	4.446342199619758e-01

 46	4.600000000000002e-01
	-2.624544264148014e-14
	-3.727280490476695e-17
	-1.865115401808681e-13
	2.929684281116158e-07
	4.436046567449084e-05
	2.189277113242162e-06
	4.446342216665565e-01

 47	4.700000000000003e-01
	-2.547206219318160e-14
	-3.951266148472863e-17
	-1.899425695326354e-13
	3.383169037164156e-07
	5.221192809268515e-05
	2.671459739945669e-06
	4.446342236822006e-01

 48	4.800000000000003e-01
	-2.472569805370902e-14
	-4.185973703369032e-17
	-1.932341685961586e-13
	3.875175885218190e-07
	6.086151008410539e-05
	3.236177201974765e-06
	4.446342260428619e-01

 49	4.900000000000003e-01
	-2.400580265728946e-14
	-4.431795077738736e-17
	-1.963878457151262e-13
	4.404456303719959e-07
	7.026310298777254e-05
	3.891196927770393e-06
	4.446342287810092e-01

 50	5.000000000000002e-01
	-2.331171964341684e-14
	-4.689138607199563e-17
	-1.994058316697865e-13
	4.969394542393239e-07
	8.035239524016576e-05
	4.643730764522328e-06
	4.446342319267932e-01

 51	5.100000000000002e-01
	-2.264270225752540e-14
	-4.958430245090083e-17
	-2.022909771393408e-13
	5.568103804143600e-07
	9.105158066142569e-05
	5.500275664926052e-06
	4.446342355073701e-01

 52	5.200000000000002e-01
	-2.199793078627411e-14
	-5.240114807973535e-17
	-2.050466539401757e-13
	6.198523765691729e-07
	1.022747127425332e-04
	6.466505263476674e-06
	4.446342395464583e-01

 53	5.300000000000002e-01
	-2.137652880196518e-14
	-5.534657263196726e-17
	-2.076766615514168e-13
	6.858512731965865e-07
	1.139330370309225e-04
	7.547215409982137e-06
	4.446342440641050e-01

 54	5.400000000000003e-01
	-2.077757806236536e-14
	-5.842544060502318e-17
	-2.101851400342339e-13
	7.545929384224180e-07
	1.259397477230186e-04
	8.746320539862647e-06
	4.446342490766736e-01

 55	5.500000000000003e-01
	-2.020013197536127e-14
	-6.164284510422658e-17
	-2.125764900865935e-13
	8.258700971455827e-07
	1.382137972756628e-04
	1.006689310050183e-05
	4.446342545970075e-01

 56	5.600000000000003e-01
	-1.964322759165344e-14
	-6.500412212859904e-17
	-2.148553006572840e-13
	8.994876602617797e-07
	1.506825872640442e-04
	1.151123554392751e-05
	4.446342606347313e-01

 57	5.700000000000003e-01
	-1.910589613292552e-14
	-6.851486539883606e-17
	-2.170262842748132e-13
	9.752665806452806e-07
	1.632835433567432e-04
	1.308097358505928e-05
	4.446342671966413e-01

 58	5.800000000000003e-01
	-1.858717209796209e-14
	-7.218094177363095e-17
	-2.190942200278533e-13
	1.053046362547926e-06
	1.759647034301156e-04
	1.477716012965018e-05
	4.446342742871384e-01

 59	5.900000000000003e-01
	-1.808610101572980e-14
	-7.600850730589500e-17
	-2.210639039617309e-13
	1.132686418572145e-06
	1.886845193298463e-04
	1.660038096803840e-05
	4.446342819086707e-01

 60	6.000000000000003e-01
	-1.760174593340269e-14
	-8.000402399554258e-17
	-2.229401065259464e-13
	1.214066498500088e-06
	2.014110961208558e-04
	1.855085548784329e-05
	4.446342900621563e-01

 61	6.100000000000003e-01
	-1.713319273973005e-14
	-8.417427730027579e-17
	-2.247275366158718e-13
	1.297086415606801e-06
	2.141210808422734e-04
	2.062852786128501e-05
	4.446342987473608e-01

 62	6.200000000000003e-01
	-1.667955443108141e-14
	-8.852639447045201e-17
	-2.264308116922365e-13
	1.381665278059652e-06
	2.267983800318102e-04
	2.283314613110946e-05
	4.446343079632312e-01

 63	6.300000000000003e-01
	-1.623997442998029e-14
	-9.306786377863222e-17
	-2.280544334293643e-13
	1.467740404070258e-06
	2.394328437662431e-04
	2.516432820727332e-05
	4.446343177081700e-01

 64	6.400000000000003e-01
	-1.581362906491137e-14
	-9.780655471884290e-17
	-2.296027683322228e-13
	1.555266066258117e-06
	2.520190123735728e-04
	2.762161495345134e-05
	4.446343279802575e-01

 65	6.500000000000004e-01
	-1.539972931650940e-14
	-1.027507392551424e-16
	-2.310800327684675e-13
	1.644212177825575e-06
	2.645549854769675e-04
	3.020451131591980e-05
	4.446343387774251e-01

 66	6.600000000000004e-01
	-1.499752192964695e-14
	-1.079091142036941e-16
	-2.324902818806254e-13
	1.734563003437451e-06
	2.770414439444502e-04
	3.291251689197761e-05
	4.446343500975801e-01

 67	6.700000000000004e-01
	-1.460628998405953e-14
	-1.132908248373265e-16
	-2.338374018717636e-13
	1.826315952532902e-06
	2.894808339922140e-04
	3.574514752790937e-05
	4.446343619386997e-01

 68	6.800000000000004e-01
	-1.422535300849474e-14
	-1.189054898066443e-16
	-2.351251051923949e-13
	1.919480492565774e-06
	3.018767083340338e-04
	3.870194955188600e-05
	4.446343742988857e-01

 69	6.900000000000004e-01
	-1.385406671534649e-14
	-1.247632274770380e-16
	-2.363569281945206e-13
	2.014077204145602e-06
	3.142332105811025e-04
	4.178250814854060e-05
	4.446343871764044e-01

 70	7.000000000000004e-01
	-1.349182242466815e-14
	-1.308746837866830e-16
	-2.375362308586125e-13
	2.110136988674818e-06
	3.265546846694023e-04
	4.498645121888111e-05
	4.446344005697014e-01

 71	7.100000000000004e-01
	-1.313804623857092e-14
	-1.372510617366447e-16
	-2.386661982394873e-13
	2.207700431154281e-06
	3.388453896461667e-04
	4.831344987772843e-05
	4.446344144774024e-01

 72	7.200000000000004e-01
	-1.279219801949247e-14
	-1.439041526307889e-16
	-2.397498433162448e-13
	2.306817315658632e-06
	3.511093006332279e-04
	5.176321654537400e-05
	4.446344288983030e-01

 73	7.300000000000004e-01
	-1.245377021876461e-14
	-1.508463691901928e-16
	-2.407900109689508e-13
	2.407546287927020e-06
	3.633499784034841e-04
	5.533550140574796e-05
	4.446344438313598e-01

 74	7.400000000000004e-01
	-1.212228659540758e-14
	-1.580907806743323e-16
	-2.417893828399461e-13
	2.509954658031189e-06
	3.755704921861823e-04
	5.903008783836853e-05
	4.446344592756677e-01

 75	7.500000000000004e-01
	-1.179730085914896e-14
	-1.656511501494783e-16
	-2.427504828702287e-13
	2.614118335731960e-06
	3.877733826739648e-04
	6.284678728925320e-05
	4.446344752304378e-01

 76	7.600000000000005e-01
	-1.147839526633268e-14
	-1.735419740534752e-16
	-2.436756833311092e-13
	2.720121891575480e-06
	3.999606545002754e-04
	6.678543392730040e-05
	4.446344916949773e-01

 77	7.700000000000005e-01
	-1.116517919262863e-14
	-1.817785242155656e-16
	-2.445672111982115e-13
	2.828058737755654e-06
	4.121337895543218e-04
	7.084587933603528e-05
	4.446345086686651e-01

 78	7.800000000000005e-01
	-1.085728770225734e-14
	-1.903768925000113e-16
	-2.454271547389439e-13
	2.938031424093549e-06
	4.242937743378615e-04
	7.502798741369494e-05
	4.446345261509343e-01

 79	7.900000000000005e-01
	-1.055438012976940e-14
	-1.993540382532477e-16
	-2.462574702058942e-13
	3.050152046029353e-06
	4.364411361253101e-04
	7.933162959469859e-05
	4.446345441412441e-01

 80	8.000000000000005e-01
	-1.025613868722954e-14
	-2.087278387459246e-16
	-2.470599885473612e-13
	3.164542763203195e-06
	4.485759839752909e-04
	8.375668045979905e-05
	4.446345626390726e-01

 81	8.100000000000005e-01
	-9.962267106909754e-15
	-2.185171428138062e-16
	-2.478364220626321e-13
	3.281336428967310e-06
	4.606980516823784e-04
	8.830301376811367e-05
	4.446345816438907e-01

 82	8.200000000000005e-01
	-9.672489328019192e-15
	-2.287418278868049e-16
	-2.485883589605848e-13
	3.400677332672145e-06
	4.728067186359201e-04
	9.297049890667786e-05
	4.446346011551536e-01

 83	8.300000000000005e-01
	-9.386548298529921e-15
	-2.394228581175492e-16
	-2.493172139782955e-13
	3.522722030316271e-06
	4.849009414795283e-04
	9.775899663051579e-05
	4.446346211722773e-01

 84	8.400000000000005e-01
	-9.104204668559902e-15
	-2.505823520792878e-16
	-2.500244731431756e-13
	3.647640364695322e-06
	4.969797386878981e-04
	1.026683578064268e-04
	4.446346416946401e-01

 85	8.500000000000005e-01
	-8.825235616339908e-15
	-2.622436525371899e-16
	-2.507114378560107e-13
	3.775616589544211e-06
	5.090417508631004e-04
	1.076984214837530e-04
	4.446346627215676e-01

 86	8.600000000000005e-01
	-8.549433794982737e-15
	-2.744313980789289e-16
	-2.513793216668247e-13
	3.906850606268882e-06
	5.210854337829764e-04
	1.128490121688120e-04
	4.446346842523277e-01

 87	8.700000000000006e-01
	-8.276606291628582e-15
	-2.871716010462757e-16
	-2.520292557467075e-13
	4.041559372704711e-06
	5.331090870302448e-04
	1.181199381228003e-04
	4.446347062861175e-01

 88	8.800000000000006e-01
	-8.006573644370504e-15
	-3.004917305245156e-16
	-2.526622940981460e-13
	4.179978480256264e-06
	5.451108791254486e-04
	1.235109899284360e-04
	4.446347288220610e-01

 89	8.900000000000006e-01
	-7.739168916184644e-15
	-3.144208007298980e-16
	-2.532794185003574e-13
	4.322363916855753e-06
	5.570888692838540e-04
	1.290219392909172e-04
	4.446347518592065e-01

 90	9.000000000000006e-01
	-7.474236824612069e-15
	-3.289894651576115e-16
	-2.538815431895847e-13
	4.468994036093390e-06
	5.690410259729068e-04
	1.346525380402935e-04
	4.446347753965129e-01

 91	9.100000000000006e-01
	-7.211632925579952e-15
	-3.442301168760942e-16
	-2.544695192770687e-13
	4.620171756114059e-06
	5.809652424774475e-04
	1.404025173042561e-04
	4.446347994328585e-01

 92	9.200000000000006e-01
	-6.951222849472716e-15
	-3.601769953785577e-16
	-2.550441389096189e-13
	4.776227015508539e-06
	5.928593496917193e-04
	1.462715868225401e-04
	4.446348239670285e-01

 93	9.300000000000006e-01
	-6.692881587379014e-15
	-3.768663004284321e-16
	-2.556061391793719e-13
	4.937519517523806e-06
	6.047211263552337e-04
	1.522594343762775e-04
	4.446348489977196e-01

 94	9.400000000000006e-01
	-6.436492825305695e-15
	-3.943363133632263e-16
	-2.561562057906249e-13
	5.104441798560616e-06
	6.165483069380823e-04
	1.583657253077951e-04
	4.446348745235303e-01

 95	9.500000000000006e-01
	-6.181948324081788e-15
	-4.126275263498398e-16
	-2.566949764925364e-13
	5.277422662211422e-06
	6.283385873630886e-04
	1.645901021082933e-04
	4.446349005429686e-01

 96	9.600000000000006e-01
	-5.929147342638278e-15
	-4.317827801146732e-16
	-2.572230442871449e-13
	5.456931026124402e-06
	6.400896287296088e-04
	1.709321840526358e-04
	4.446349270544404e-01

 97	9.700000000000006e-01
	-5.677996102358213e-15
	-4.518474107031316e-16
	-2.577409604225306e-13
	5.643480235884188e-06
	6.517990591782142e-04
	1.773915668619626e-04
	4.446349540562578e-01

 98	9.800000000000006e-01
	-5.428407290220057e-15
	-4.728694058557065e-16
	-2.582492371811627e-13
	5.837632908016242e-06
	6.634644740082397e-04
	1.839678223761417e-04
	4.446349815466286e-01

 99	9.900000000000007e-01
	-5.180299598510800e-15
	-4.948995716216119e-16
	-2.587483504735051e-13
	6.040006373310506e-06
	6.750834341316165e-04
	1.906604982190128e-04
	4.446350095236622e-01

 100	1.000000000000001e+00
	-4.933597298955526e-15
	-5.179917098653202e-16
	-2.592387422468699e-13
	6.251278802104283e-06
	6.866534629172427e-04
	1.974691174400876e-04
	4.446350379853665e-01

 101	1.010000000000001e+00
	-4.688229849191990e-15
	-5.422028073569867e-16
	-2.597208227193175e-13
	6.472196105171613e-06
	6.981720414503184e-04
	2.043931781167665e-04
	4.446350669296418e-01

 102	1.020000000000001e+00
	-4.444131529610414e-15
	-5.675932371734666e-16
	-2.601949724481338e-13
	6.703579717672166e-06
	7.096366022006168e-04
	2.114321529012009e-04
	4.446350963542833e-01

 103	1.030000000000001e+00
	-4.201241108676477e-15
	-5.942269731729356e-16
	-2.606615442420852e-13
	6.946335389483361e-06
	7.210445210625440e-04
	2.185854884957486e-04
	4.446351262569787e-01

 104	1.040000000000001e+00
	-3.959501534955835e-15
	-6.221718183420572e-16
	-2.611208649262804e-13
	7.201463123467951e-06
	7.323931076975524e-04
	2.258526050404091e-04
	4.446351566353027e-01

 105	1.050000000000001e+00
	-3.718859654163618e-15
	-6.514996478501236e-16
	-2.615732369680596e-13
	7.470068424143973e-06
	7.436795940759463e-04
	2.332328953947806e-04
	4.446351874867177e-01

 106	1.060000000000001e+00
	-3.479265949664787e-15
	-6.822866676788489e-16
	-2.620189399719096e-13
	7.753375043179308e-06
	7.549011210796893e-04
	2.407257242958709e-04
	4.446352188085703e-01

 107	1.070000000000001e+00
	-3.240674304955159e-15
	-7.146136897291035e-16
	-2.624582320509607e-13
	8.052739435505546e-06
	7.660547229902611e-04
	2.483304273715305e-04
	4.446352505980796e-01

 108	1.080000000000001e+00
	-3.003041786755607e-15
	-7.485664243355406e-16
	-2.628913510821773e-13
	8.369667171025646e-06
	7.771373096452223e-04
	2.560463099872956e-04
	4.446352828523431e-01

 109	1.090000000000001e+00
	-2.766328447448319e-15
	-7.842357911465332e-16
	-2.633185158519192e-13
	8.705831582263942e-06
	7.881456460037255e-04
	2.638726459020873e-04
	4.446353155683262e-01

 110	1.100000000000001e+00
	-2.530497145682915e-15
	-8.217182493483379e-16
	-2.637399270981079e-13
	9.063094968224454e-06
	7.990763288140723e-04
	2.718086757053556e-04
	4.446353487428519e-01

 111	1.110000000000001e+00
	-2.295513384072034e-15
	-8.611161482279345e-16
	-2.641557684548060e-13
	9.443532719460430e-06
	8.099257600254155e-04
	2.798536050049299e-04
	4.446353823726012e-01

 112	1.120000000000001e+00
	-2.061345162984138e-15
	-9.025380990768874e-16
	-2.645662073046121e-13
	9.849460779053032e-06
	8.206901165306625e-04
	2.880066023310323e-04
	4.446354164540971e-01

 113	1.130000000000001e+00
	-1.827962849528478e-15
	-9.460993694370616e-16
	-2.649713955438687e-13
	1.028346690874590e-05
	8.313653157684994e-04
	2.962667967174195e-04
	4.446354509836992e-01

 114	1.140000000000001e+00
	-1.595339060904960e-15
	-9.919223006759092e-16
	-2.653714702653091e-13
	1.074844628843400e-05
	8.419469766499792e-04
	3.046332749156575e-04
	4.446354859575884e-01

 115	1.150000000000001e+00
	-1.363448561371688e-15
	-1.040136749851862e-15
	-2.657665543624076e-13
	1.124764203952895e-05
	8.524303752101514e-04
	3.131050781928089e-04
	4.446355213717588e-01

 116	1.160000000000001e+00
	-1.132268172151550e-15
	-1.090880556786425e-15
	-2.661567570593626e-13
	1.178469132661387e-05
	8.628103943199506e-04
	3.216811986565332e-04
	4.446355572219972e-01

 117	1.170000000000001e+00
	-9.017766936688044e-16
	-1.144300037195507e-15
	-2.665421743703326e-13
	1.236367775424866e-05
	8.730814667310094e-04
	3.303605750446023e-04
	4.446355935038651e-01

 118	1.180000000000001e+00
	-6.719548395687583e-16
	-1.200550502644753e-15
	-2.669228894912522e-13
	1.298919083218424e-05
	8.832375106713549e-04
	3.391420879082971e-04
	4.446356302126837e-01

 119	1.190000000000001e+00
	-4.427851820294830e-16
	-1.259796807977740e-15
	-2.672989731273080e-13
	1.366639332567559e-05
	8.932718571702207e-04
	3.480245541111139e-04
	4.446356673435076e-01

 120	1.200000000000001e+00
	-2.142521079288168e-16
	-1.322213926717914e-15
	-2.676704837589125e-13
	1.440109732807644e-05
	9.031771682760343e-04
	3.570067205558869e-04
	4.446357048910967e-01

 121	1.210000000000001e+00
	1.365821452372033e-17
	-1.387987554758523e-15
	-2.680374678488211e-13
	1.519984987633232e-05
	9.129453453577906e-04
	3.660872570451670e-04
	4.446357428498922e-01

 122	1.220000000000001e+00
	2.409578590422427e-16
	-1.457314742425326e-15
	-2.683999599928790e-13
	1.607002885685863e-05
	9.225674267667390e-04
	3.752647481719793e-04
	4.446357812139773e-01

 123	1.230000000000001e+00
	4.676571547204718e-16
	-1.530404554716281e-15
	-2.687579830167463e-13
	1.701994979317528e-05
	9.320334743099305e-04
	3.845376841316274e-04
	4.446358199770392e-01

 124	1.240000000000001e+00
	6.937646899783130e-16
	-1.607478759185461e-15
	-2.691115480208688e-13
	1.805898383260493e-05
	9.413324482856493e-04
	3.939044503410950e-04
	4.446358591323296e-01

 125	1.250000000000001e+00
	9.192873072663142e-16
	-1.688772540535693e-15
	-2.694606543759164e-13
	1.919768681214125e-05
	9.504520712994434e-04
	4.033633157523051e-04
	4.446358986726113e-01

 126	1.260000000000001e+00
	1.144230088784885e-15
	-1.774535240508828e-15
	-2.698052896709141e-13
	2.044793862660118e-05
	9.593786817758213e-04
	4.129124197509058e-04
	4.446359385901065e-01

 127	1.270000000000001e+00
	1.368596333471723e-15
	-1.865031121104636e-15
	-2.701454296163417e-13
	2.182309117692511e-05
	9.680970790742463e-04
	4.225497575461247e-04
	4.446359788764346e-01

 128	1.280000000000001e+00
	1.592387525519169e-15
	-1.960540148510126e-15
	-2.704810379045931e-13
	2.333812186432755e-05
	9.765903634876103e-04
	4.322731639828131e-04
	4.446360195225448e-01

 129	1.290000000000001e+00
	1.815603294700589e-15
	-2.061358794370557e-15
	-2.708120660303551e-13
	2.500978783315199e-05
	9.848397762303154e-04
	4.420802957482907e-04
	4.446360605186416e-01

 130	1.300000000000001e+00
	2.038241368817279e-15
	-2.167800850172772e-15
	-2.711384530737074e-13
	2.685677387341816e-05
	9.928245468879817e-04
	4.519686120090588e-04
	4.446361018541035e-01

 131	1.310000000000001e+00
	2.260297518620381e-15
	-2.280198249530882e-15
	-2.714601254490547e-13
	2.889982401897381e-05
	1.000521758752041e-03
	4.619353536013916e-04
	4.446361435173956e-01

 132	1.320000000000001e+00
	2.481765495624151e-15
	-2.398901892053865e-15
	-2.717769966233942e-13
	3.116184341871430e-05
	1.007906245994073e-03
	4.719775210212751e-04
	4.446361854959802e-01

 133	1.330000000000001e+00
	2.702636963301991e-15
	-2.524282461229252e-15
	-2.720889668079030e-13
	3.366795311368922e-05
	1.014950540639893e-03
	4.820918516184106e-04
	4.446362277762182e-01

 134	1.340000000000001e+00
	2.922901422249932e-15
	-2.656731227366888e-15
	-2.723959226273803e-13
	3.644547617381802e-05
	1.021624891517329e-03
	4.922747965996513e-04
	4.446362703432742e-01

 135	1.350000000000001e+00
	3.142546130019684e-15
	-2.796660825111293e-15
	-2.726977367727603e-13
	3.952382970737410e-05
	1.027897381284899e-03
	5.025224986891750e-04
	4.446363131810251e-01

 136	1.360000000000001e+00
	3.361556016455104e-15
	-2.944505993346866e-15
	-2.729942676426575e-13
	4.293429431164722e-05
	1.033734170525163e-03
	5.128307715694130e-04
	4.446363562719692e-01

 137	1.370000000000001e+00
	3.579913595523952e-15
	-3.100724263492532e-15
	-2.732853589807687e-13
	4.670963166028032e-05
	1.039099898612275e-03
	5.231950825225576e-04
	4.446363995971593e-01

 138	1.380000000000001e+00
	3.797598874818607e-15
	-3.265796580218233e-15
	-2.735708395169306e-13
	5.088352348190094e-05
	1.043958268264812e-03
	5.336105399791352e-04
	4.446364431361489e-01

 139	1.390000000000001e+00
	4.014589264101721e-15
	-3.440227836531774e-15
	-2.738505226206819e-13
	5.548981266590959e-05
	1.048272832879783e-03
	5.440718879149345e-04
	4.446364868669648e-01

 140	1.400000000000001e+00
	4.230859484500623e-15
	-3.624547303002276e-15
	-2.741242059773424e-13
	6.056154093283375e-05
	1.052007991629070e-03
	5.545735091635893e-04
	4.446365307661265e-01

 141	1.410000000000001e+00
	4.446381480206856e-15
	-3.819308928640373e-15
	-2.743916712978659e-13
	6.612979803057237e-05
	1.055130176321347e-03
	5.651094396627085e-04
	4.446365748087014e-01

 142	1.420000000000001e+00
	4.661124334807085e-15
	-4.025091488687215e-15
	-2.746526840750276e-13
	7.222242404399069e-05
	1.057609186971869e-03
	5.756733953604118e-04
	4.446366189684237e-01

 143	1.430000000000001e+00
	4.875054194665648e-15
	-4.242498552331541e-15
	-2.749069933998706e-13
	7.886263651667871e-05
	1.059419602574121e-03
	5.862588129274632e-04
	4.446366632178553e-01

 144	1.440000000000001e+00
	5.088134202079988e-15
	-4.472158241247694e-15
	-2.751543318537052e-13
	8.606768293162914e-05
	1.060542164556953e-03
	5.968589045363403e-04
	4.446367075286207e-01

 145	1.450000000000001e+00
	5.300324441248204e-15
	-4.714722747910556e-15
	-2.753944154923188e-13
	9.384764023570504e-05
	1.060965009340073e-03
	6.074667258285003e-04
	4.446367518716930e-01

 146	1.460000000000001e+00
	5.511581900400693e-15
	-4.970867581002672e-15
	-2.756269439403390e-13
	1.022044896808290e-04
	1.060684620119486e-03
	6.180752549089878e-04
	4.446367962177186e-01

 147	1.470000000000001e+00
	5.721860453751827e-15
	-5.241290503997702e-15
	-2.758516006148669e-13
	1.111315820991109e-04
	1.059706381669192e-03
	6.286774789591577e-04
	4.446368405373799e-01

 148	1.480000000000001e+00
	5.931110867213317e-15
	-5.526710132322527e-15
	-2.760680530984704e-13
	1.206135744700689e-04
	1.058044656798997e-03
	6.392664840536861e-04
	4.446368848017780e-01

 149	1.490000000000001e+00
	6.139280832057657e-15
	-5.827864154513043e-15
	-2.762759536823529e-13
	1.306268671573014e-04
	1.055722355159625e-03
	6.498355432034130e-04
	4.446369289827926e-01

 150	1.500000000000001e+00
	6.346315030915049e-15
	-6.145507143650500e-15
	-2.764749401008665e-13
	1.411405113854614e-04
	1.052770025336979e-03
	6.603781976516852e-04
	4.446369730534219e-01

 151	1.510000000000001e+00
	6.552155240607049e-15
	-6.480407927260465e-15
	-2.766646364784540e-13
	1.521175001820026e-04
	1.049224557787920e-03
	6.708883270524041e-04
	4.446370169880846e-01

 152	1.520000000000001e+00
	6.756740476356189e-15
	-6.833346486946580e-15
	-2.768446545094909e-13
	1.635163144075644e-04
	1.045127627862649e-03
	6.813602052583627e-04
	4.446370607628423e-01

 153	1.530000000000001e+00
	6.960007181817603e-15
	-7.205110363476278e-15
	-2.770145948902024e-13
	1.752925760885224e-04
	1.040524027543637e-03
	6.917885398579194e-04
	4.446371043555731e-01
