Title: **.subckt gm_id_nmos
Date: Sat Jun 12 17:26:53  2021
Plotname: DC transfer characteristic
Flags: real
No. Variables: 8
No. Points: 181
Variables:
	0	v(v-sweep)	voltage
	1	@m.xm1.msky130_fd_pr__nfet_01v8_lvt[cgb]	capacitance
	2	@m.xm1.msky130_fd_pr__nfet_01v8_lvt[cgd]	capacitance
	3	@m.xm1.msky130_fd_pr__nfet_01v8_lvt[cgs]	capacitance
	4	@m.xm1.msky130_fd_pr__nfet_01v8_lvt[gds]	admittance
	5	@m.xm1.msky130_fd_pr__nfet_01v8_lvt[gm]	admittance
	6	i(@m.xm1.msky130_fd_pr__nfet_01v8_lvt[id])	current
	7	v(@m.xm1.msky130_fd_pr__nfet_01v8_lvt[vth])	voltage
Values:
 0	0.000000000000000e+00
	-8.009646926055015e-15
	-1.218287032801904e-19
	-1.578676334880824e-15
	7.697485313945830e-13
	6.833016536843870e-11
	2.246341882577886e-12
	4.829638923799480e-01

 1	1.000000000000000e-02
	-7.927011269174477e-15
	-1.315773639194775e-19
	-1.701417794212658e-15
	1.043378299409144e-12
	9.260834991900495e-11
	3.044896995263743e-12
	4.829638923799569e-01

 2	2.000000000000000e-02
	-7.844030181761490e-15
	-1.421037365040284e-19
	-1.833055893820345e-15
	1.414214509021186e-12
	1.255043431823859e-10
	4.127147175722675e-12
	4.829638923799716e-01

 3	3.000000000000000e-02
	-7.760577915467076e-15
	-1.534677792282492e-19
	-1.974108632327943e-15
	1.916752999096054e-12
	1.700722892027325e-10
	5.593771699661100e-12
	4.829638923799893e-01

 4	4.000000000000000e-02
	-7.676529523191548e-15
	-1.657336335754176e-19
	-2.125104886747940e-15
	2.597710117872174e-12
	2.304459309772420e-10
	7.581118165995069e-12
	4.829638923800130e-01

 5	5.000000000000000e-02
	-7.591761375669290e-15
	-1.789698471895800e-19
	-2.286581367509100e-15
	3.520339804149977e-12
	3.122186330162824e-10
	1.027380368734908e-11
	4.829638923800454e-01

 6	6.000000000000000e-02
	-7.506151784299011e-15
	-1.932495980319641e-19
	-2.459078978269021e-15
	4.770268740880903e-12
	4.229562555656160e-10
	1.392174768223257e-11
	4.829638923800897e-01

 7	7.000000000000001e-02
	-7.419581735037378e-15
	-2.086509179779526e-19
	-2.643138538732173e-15
	6.463379374776582e-12
	5.728887997701589e-10
	1.886318318643717e-11
	4.829638923801487e-01

 8	8.000000000000000e-02
	-7.331935736477896e-15
	-2.252569137557659e-19
	-2.839295836584074e-15
	8.756453177000411e-12
	7.758423164351333e-10
	2.555572696058565e-11
	4.829638923802299e-01

 9	9.000000000000000e-02
	-7.243102783006096e-15
	-2.431559828777289e-19
	-3.048075985636662e-15
	1.186153069836778e-11
	1.050493257027041e-09
	3.461830216733788e-11
	4.829638923803392e-01

 10	9.999999999999999e-02
	-7.152977431110634e-15
	-2.624420219792282e-19
	-3.269987081708907e-15
	1.606527076806686e-11
	1.422054827116969e-09
	4.688765973825807e-11
	4.829638923804867e-01

 11	1.100000000000000e-01
	-7.061460983513807e-15
	-2.832146247704704e-19
	-3.505513165912900e-15
	2.175502468789354e-11
	1.924540998816625e-09
	6.349451239874181e-11
	4.829638923806859e-01

 12	1.200000000000000e-01
	-6.968462771763990e-15
	-3.055792666352419e-19
	-3.755106527006493e-15
	2.945391622956601e-11
	2.603801194787237e-09
	8.596597806577550e-11
	4.829638923809575e-01

 13	1.300000000000000e-01
	-6.873901523346233e-15
	-3.296474727940044e-19
	-4.019179400257522e-15
	3.986797789741850e-11
	3.521580431971704e-09
	1.163632548265417e-10
	4.829638923813236e-01

 14	1.400000000000000e-01
	-6.777706794296342e-15
	-3.555369669014821e-19
	-4.298095149537061e-15
	5.394939306693910e-11
	4.760939758213896e-09
	1.574663807918305e-10
	4.829638923818180e-01

 15	1.500000000000000e-01
	-6.679820442886518e-15
	-3.833717969885912e-19
	-4.592159051526724e-15
	7.298120068854750e-11
	6.433474706657918e-09
	2.130217737729391e-10
	4.829638923824872e-01

 16	1.600000000000000e-01
	-6.580198114377916e-15
	-4.132824358004322e-19
	-4.901608835039799e-15
	9.869051817307281e-11
	8.688900498161858e-09
	2.880732522249889e-10
	4.829638923833913e-01

 17	1.700000000000000e-01
	-6.478810701363895e-15
	-4.454058528417422e-19
	-5.226605163209569e-15
	1.333995292841748e-10
	1.172773763017142e-08
	3.894037199984344e-10
	4.829638923846125e-01

 18	1.800000000000000e-01
	-6.375645739168986e-15
	-4.798855558301869e-19
	-5.567222280002434e-15
	1.802262836226394e-10
	1.581803624101522e-08
	5.261230219702146e-10
	4.829638923862595e-01

 19	1.900000000000000e-01
	-6.270708691482637e-15
	-5.168715997843129e-19
	-5.923439073138995e-15
	2.433508908688649e-10
	2.131732764954365e-08
	7.104480719131188e-10
	4.829638923884800e-01

 20	2.000000000000000e-01
	-6.164024078287784e-15
	-5.565205626392799e-19
	-6.295130830759257e-15
	3.283670974636328e-10
	2.870129056299469e-08
	9.587346916219151e-10
	4.829638923914709e-01

 21	2.100000000000000e-01
	-6.055636396592471e-15
	-5.989954870850357e-19
	-6.682061986602249e-15
	4.427446221967973e-10
	3.860096827905375e-08
	1.292837178885640e-09
	4.829638923954964e-01

 22	2.200000000000001e-01
	-5.945610784866003e-15
	-6.444657892456901e-19
	-7.083880155663833e-15
	5.964340715165949e-10
	5.185076720075244e-08
	1.741891921221457e-09
	4.829638924009053e-01

 23	2.300000000000001e-01
	-5.834033384737354e-15
	-6.931071358441268e-19
	-7.500111757046251e-15
	8.026537331068606e-10
	6.954989388213291e-08
	2.344645790132129e-09
	4.829638924081667e-01

 24	2.400000000000001e-01
	-5.721011358651915e-15
	-7.451012925923670e-19
	-7.930159501281524e-15
	1.078905869168614e-09
	9.314032537292669e-08
	3.152478813930089e-09
	4.829638924178985e-01

 25	2.500000000000001e-01
	-5.606672529882613e-15
	-8.006359476760551e-19
	-8.373301984744322e-15
	1.448278841765349e-09
	1.245048223098070e-07
	4.233303684137803e-09
	4.829638924309187e-01

 26	2.600000000000001e-01
	-5.491164621466447e-15
	-8.599045153172042e-19
	-8.828695583739538e-15
	1.941099639198965e-09
	1.660888426645759e-07
	5.676561562148658e-09
	4.829638924483060e-01

 27	2.700000000000001e-01
	-5.374654083008398e-15
	-9.231059254503860e-19
	-9.295378776388495e-15
	2.597007700456076e-09
	2.210504496221996e-07
	7.599573521858011e-09
	4.829638924714726e-01

 28	2.800000000000001e-01
	-5.257324508388166e-15
	-9.904444064835387e-19
	-9.772278943644877e-15
	3.467523167669284e-09
	2.934423938452324e-07
	1.015554846461687e-08
	4.829638925022630e-01

 29	2.900000000000001e-01
	-5.139374662569282e-15
	-1.062129268885071e-18
	-1.025822161487896e-14
	4.619177739157072e-09
	3.884304866751351e-07
	1.354358993825701e-08
	4.829638925430781e-01

 30	3.000000000000001e-01
	-5.021016151144983e-15
	-1.138374697898186e-18
	-1.075194203270202e-14
	6.137260083390878e-09
	5.125522293857209e-07
	1.802108472423308e-08
	4.829638925970176e-01

 31	3.100000000000001e-01
	-4.902470781072122e-15
	-1.219399563997226e-18
	-1.125209882101514e-14
	8.130195418195396e-09
	6.740195782180524e-07
	2.391889513560072e-08
	4.829638926680674e-01

 32	3.200000000000001e-01
	-4.783967674331582e-15
	-1.305427259744302e-18
	-1.175728945499169e-14
	1.073452514628277e-08
	8.830699484395887e-07
	3.165981650957977e-08
	4.829638927613202e-01

 33	3.300000000000001e-01
	-4.665740207154357e-15
	-1.396685571471779e-18
	-1.226606715709473e-14
	1.412037284980672e-08
	1.152370352218140e-06
	4.178080581196618e-08
	4.829638928832463e-01

 34	3.400000000000001e-01
	-4.548022855243036e-15
	-1.493406593709956e-18
	-1.277695878404273e-14
	1.849717532101172e-08
	1.497481001979420e-06
	5.495954294022170e-08
	4.829638930420072e-01

 35	3.500000000000001e-01
	-4.431048029573249e-15
	-1.595826693527869e-18
	-1.328848322966077e-14
	2.411932411489736e-08
	1.937386323364667e-06
	7.204595797454448e-08
	4.829638932478438e-01

 36	3.600000000000002e-01
	-4.315042987604536e-15
	-1.704186530991110e-18
	-1.379916985030635e-14
	3.129121404584958e-08
	2.495101585595702e-06
	9.409944052043522e-08
	4.829638935135174e-01

 37	3.700000000000002e-01
	-4.200226901063237e-15
	-1.818731140815081e-18
	-1.430757642401968e-14
	4.037104920792299e-08
	3.198359212374593e-06
	1.224325140377201e-07
	4.829638938548397e-01

 38	3.800000000000002e-01
	-4.086808154154864e-15
	-1.939710079061907e-18
	-1.481230618112910e-14
	5.177264360364803e-08
	4.080365611738938e-06
	1.586617423860855e-07
	4.829638942912855e-01

 39	3.900000000000002e-01
	-3.974981935637375e-15
	-2.067377637453831e-18
	-1.531202349062603e-14
	6.596440919011739e-08
	5.180591653008987e-06
	2.047664197944652e-07
	4.829638948466990e-01

 40	4.000000000000002e-01
	-3.864928175350405e-15
	-2.201993126616562e-18
	-1.580546784982249e-14
	8.346478745916928e-08
	6.545513905109504e-06
	2.631550124319440e-07
	4.829638955500943e-01

 41	4.100000000000002e-01
	-3.756809861386872e-15
	-2.343821228378449e-18
	-1.629146590027887e-14
	1.048335812472264e-07
	8.229160919547212e-06
	3.367381879316159e-07
	4.829638964365351e-01

 42	4.200000000000002e-01
	-3.650771758999938e-15
	-2.493132416182227e-18
	-1.676894127586047e-14
	1.306589900924602e-07
	1.029324997413180e-05
	4.290054652483126e-07
	4.829638975480601e-01

 43	4.300000000000002e-01
	-3.546939537426010e-15
	-2.650203441757348e-18
	-1.723692217405627e-14
	1.615406224835425e-07
	1.280664677559818e-05
	5.441000816554225e-07
	4.829638989345811e-01

 44	4.400000000000002e-01
	-3.445419296850304e-15
	-2.815317885469421e-18
	-1.769454662465767e-14
	1.980692937520857e-07
	1.584387384030992e-05
	6.868839130694822e-07
	4.829639006546679e-01

 45	4.500000000000002e-01
	-3.346297475383306e-15
	-2.988766767237581e-18
	-1.814106550645416e-14
	2.408049320720124e-07
	1.948246159124098e-05
	8.629818109357813e-07
	4.829639027760823e-01

 46	4.600000000000002e-01
	-3.249641105622584e-15
	-3.170849214576552e-18
	-1.857584342950591e-14
	2.902543080569434e-07
	2.379909327523641e-05
	1.078793371764913e-06
	4.829639053759189e-01

 47	4.700000000000003e-01
	-3.155498382427046e-15
	-3.361873184185789e-18
	-1.899835765553936e-14
	3.468504889526782e-07
	2.886472597397233e-05
	1.341460775569716e-06
	4.829639085402184e-01

 48	4.800000000000003e-01
	-3.063899498034159e-15
	-3.562156233546889e-18
	-1.940819527083522e-14
	4.109358452937792e-07
	3.473912808642334e-05
	1.658784447437529e-06
	4.829639123629500e-01

 49	4.900000000000003e-01
	-2.974857697547099e-15
	-3.772026339191740e-18
	-1.980504885434651e-14
	4.827501058658978e-07
	4.146548875776821e-05
	2.039083843014804e-06
	4.829639169443378e-01

 50	5.000000000000002e-01
	-2.888370506920046e-15
	-3.991822758632696e-18
	-2.018871089923632e-14
	5.624244179452593e-07
	4.906585657125465e-05
	2.491007841328067e-06
	4.829639223885723e-01

 51	5.100000000000002e-01
	-2.804421086589832e-15
	-4.221896933389673e-18
	-2.055906724974466e-14
	6.499817159455386e-07
	5.753810948998230e-05
	3.023306663083082e-06
	4.829639288010659e-01

 52	5.200000000000002e-01
	-2.722979666496525e-15
	-4.462613431067136e-18
	-2.091608980893414e-14
	7.453430423209263e-07
	6.685494673400865e-05
	3.644583312296880e-06
	4.829639362854550e-01

 53	5.300000000000002e-01
	-2.644005022031254e-15
	-4.714350925015330e-18
	-2.125982875832850e-14
	8.483389021751920e-07
	7.696507413743059e-05
	4.363045909986078e-06
	4.829639449406242e-01

 54	5.400000000000003e-01
	-2.567445955078525e-15
	-4.977503210720000e-18
	-2.159040450975786e-14
	9.587243419822530e-07
	8.779640635130304e-05
	5.186282251184561e-06
	4.829639548579807e-01

 55	5.500000000000003e-01
	-2.493242749438497e-15
	-5.252480258693579e-18
	-2.190799958480042e-14
	1.076196258120694e-06
	9.926081455820091e-05
	6.121074601792827e-06
	4.829639661192293e-01

 56	5.600000000000003e-01
	-2.421328575220060e-15
	-5.539709304260199e-18
	-2.221285058986331e-14
	1.200411457074192e-06
	1.112597674680673e-04
	7.173267023056756e-06
	4.829639787947710e-01

 57	5.700000000000003e-01
	-2.351630822036104e-15
	-5.839635975238295e-18
	-2.250524042672486e-14
	1.331004168329608e-06
	1.236901694821281e-04
	8.347690656178471e-06
	4.829639929428065e-01

 58	5.800000000000003e-01
	-2.284072345810762e-15
	-6.152725459102291e-18
	-2.278549085055841e-14
	1.467601996673702e-06
	1.364497789566836e-04
	9.648145745006600e-06
	4.829640086091150e-01

 59	5.900000000000003e-01
	-2.218572618580751e-15
	-6.479463711759557e-18
	-2.305395546106999e-14
	1.609839632126887e-06
	1.494417517006493e-04
	1.107743376604482e-05
	4.829640258274470e-01

 60	6.000000000000003e-01
	-2.155048774743610e-15
	-6.820358710593321e-18
	-2.331101318813909e-14
	1.757369960402861e-06
	1.625780512959494e-04
	1.263742945999170e-05
	4.829640446203840e-01

 61	6.100000000000003e-01
	-2.093416550723915e-15
	-7.175941754909947e-18
	-2.355706231171974e-14
	1.909872496793387e-06
	1.757816551623066e-04
	1.432918093399332e-05
	4.829640650005553e-01

 62	6.200000000000003e-01
	-2.033591117978152e-15
	-7.546768817381844e-18
	-2.379251503699909e-14
	2.067059281078624e-06
	1.889876343533932e-04
	1.615302607813044e-05
	4.829640869720280e-01

 63	6.300000000000003e-01
	-1.975487811652012e-15
	-7.933421950501240e-18
	-2.401779262998842e-14
	2.228678514988069e-06
	2.021432830485832e-04
	1.810871485353786e-05
	4.829641105317927e-01

 64	6.400000000000003e-01
	-1.919022759073980e-15
	-8.336510752469664e-18
	-2.423332110578143e-14
	2.394516302535997e-06
	2.152075213388374e-04
	2.019552904646498e-05
	4.829641356711936e-01

 65	6.500000000000004e-01
	-1.864113413663344e-15
	-8.756673897323488e-18
	-2.443952745147216e-14
	2.564396879321903e-06
	2.281498015054413e-04
	2.241239338067113e-05
	4.829641623772789e-01

 66	6.600000000000004e-01
	-1.810679000803933e-15
	-9.194580734479361e-18
	-2.463683635795745e-14
	2.738181704102375e-06
	2.409487264026442e-04
	2.475797409262962e-05
	4.829641906339789e-01

 67	6.700000000000004e-01
	-1.758640882847714e-15
	-9.650932963237081e-18
	-2.482566742925929e-14
	2.915767748541252e-06
	2.535905513845540e-04
	2.723076298252658e-05
	4.829642204231267e-01

 68	6.800000000000004e-01
	-1.707922850722019e-15
	-1.012646638814764e-17
	-2.500643283430628e-14
	3.097085270751567e-06
	2.660676986700732e-04
	2.982914645675393e-05
	4.829642517252810e-01

 69	6.900000000000004e-01
	-1.658451349678854e-15
	-1.062195276151250e-17
	-2.517953536400238e-14
	3.282095303884499e-06
	2.783773721633084e-04
	3.255146015860715e-05
	4.829642845203917e-01

 70	7.000000000000004e-01
	-1.610155646595378e-15
	-1.113820171965557e-17
	-2.534536685560696e-14
	3.470787038581855e-06
	2.905203255947987e-04
	3.539603048250630e-05
	4.829643187882978e-01

 71	7.100000000000004e-01
	-1.562967945957945e-15
	-1.167606281999245e-17
	-2.550430694668564e-14
	3.663175231139268e-06
	3.024998091154268e-04
	3.836120465059298e-05
	4.829643545090866e-01

 72	7.200000000000004e-01
	-1.516823461278829e-15
	-1.223642768631695e-17
	-2.565672212193157e-14
	3.859297729423805e-06
	3.143206992504936e-04
	4.144537117471629e-05
	4.829643916633460e-01

 73	7.300000000000004e-01
	-1.471660448238888e-15
	-1.282023227015206e-17
	-2.580296501779604e-14
	4.059213176355908e-06
	3.259888035687147e-04
	4.464697250304036e-05
	4.829644302323108e-01

 74	7.400000000000004e-01
	-1.427420205349352e-15
	-1.342845923645046e-17
	-2.594337395192724e-14
	4.262998925697206e-06
	3.375103232876142e-04
	4.796451151940582e-05
	4.829644701979451e-01

 75	7.500000000000004e-01
	-1.384047047404753e-15
	-1.406214048240482e-17
	-2.607827264675188e-14
	4.470749186141829e-06
	3.488914529960367e-04
	5.139655337270297e-05
	4.829645115429648e-01

 76	7.600000000000005e-01
	-1.341488256475212e-15
	-1.472235979863324e-17
	-2.620797011902288e-14
	4.682573396266902e-06
	3.601380955186938e-04
	5.494172389757788e-05
	4.829645542508127e-01

 77	7.700000000000005e-01
	-1.299694014672576e-15
	-1.541025568254053e-17
	-2.633276070970343e-14
	4.898594823724146e-06
	3.712556706776339e-04
	5.859870567046689e-05
	4.829645983056178e-01

 78	7.800000000000005e-01
	-1.258617322432786e-15
	-1.612702431423532e-17
	-2.645292423108895e-14
	5.118949376198117e-06
	3.822489985511493e-04
	6.236623254107286e-05
	4.829646436921284e-01

 79	7.900000000000005e-01
	-1.218213905592317e-15
	-1.687392270600287e-17
	-2.656872621052579e-14
	5.343784608293517e-06
	3.931222402335525e-04
	6.624308329712932e-05
	4.829646903956297e-01

 80	8.000000000000005e-01
	-1.178442114104884e-15
	-1.765227203699497e-17
	-2.668041821242955e-14
	5.573258906964972e-06
	4.038788816785208e-04
	7.022807496319615e-05
	4.829647384018722e-01

 81	8.100000000000005e-01
	-1.139262814847911e-15
	-1.846346118550726e-17
	-2.678823822251068e-14
	5.807540837827492e-06
	4.145217487218055e-04
	7.432005610276937e-05
	4.829647876969838e-01

 82	8.200000000000005e-01
	-1.100639280710648e-15
	-1.930895046967670e-17
	-2.689240978457208e-14
	6.046808634615266e-06
	4.250530240023257e-04
	7.851790037430103e-05
	4.829648382673946e-01

 83	8.300000000000005e-01
	-1.062537086426504e-15
	-2.019027540288462e-17
	-2.699313640223618e-14
	6.291249758882023e-06
	4.354741992220070e-04
	8.282049951387044e-05
	4.829648900997519e-01

 84	8.400000000000005e-01
	-1.024923982303731e-15
	-2.110905115786743e-17
	-2.709062792102020e-14
	6.541060706150969e-06
	4.457865348196104e-04
	8.722675921047749e-05
	4.829649431808740e-01

 85	8.500000000000005e-01
	-9.877697788180102e-16
	-2.206697711213043e-17
	-2.718507265120577e-14
	6.796446857873881e-06
	4.559906948366628e-04
	9.173559464950980e-05
	4.829649974976922e-01

 86	8.600000000000005e-01
	-9.510462413037499e-16
	-2.306584145267352e-17
	-2.727664774842109e-14
	7.057622364846808e-06
	4.660869549001368e-04
	9.634592566595345e-05
	4.829650530371911e-01

 87	8.700000000000006e-01
	-9.147269809989412e-16
	-2.410752619996601e-17
	-2.736551973597814e-14
	7.324810146738929e-06
	4.760752636086528e-04
	1.010566731694993e-04
	4.829651097863718e-01

 88	8.800000000000006e-01
	-8.787873491507004e-16
	-2.519401254073126e-17
	-2.745184502469376e-14
	7.598241962395314e-06
	4.859553006261118e-04
	1.058667561680748e-04
	4.829651677322117e-01

 89	8.900000000000006e-01
	-8.432043346639113e-16
	-2.632738648972815e-17
	-2.753577042589821e-14
	7.878158543933026e-06
	4.957265304941535e-04
	1.107750893515179e-04
	4.829652268616345e-01

 90	9.000000000000006e-01
	-8.079564656514094e-16
	-2.750984490200959e-17
	-2.761743365416010e-14
	8.164809788887738e-06
	5.053882516032162e-04
	1.157805811894656e-04
	4.829652871614903e-01

 91	9.100000000000006e-01
	-7.730237151381976e-16
	-2.874370185851833e-17
	-2.769696381697154e-14
	8.458455005782146e-06
	5.149396400793726e-04
	1.208821324936130e-04
	4.829653486185376e-01

 92	9.200000000000006e-01
	-7.383874110842706e-16
	-3.003139544934045e-17
	-2.777448188925146e-14
	8.759363209479401e-06
	5.243797885734550e-04
	1.260786353932654e-04
	4.829654112194297e-01

 93	9.300000000000006e-01
	-7.040301508164597e-16
	-3.137549498049074e-17
	-2.785010117105167e-14
	9.067813463566633e-06
	5.337077400995385e-04
	1.313689726738366e-04
	4.829654749507058e-01

 94	9.400000000000006e-01
	-6.699357198995441e-16
	-3.277870863175414e-17
	-2.792392772729642e-14
	9.384095267792634e-06
	5.429225171773506e-04
	1.367520174299849e-04
	4.829655397987905e-01

 95	9.500000000000006e-01
	-6.360890154269590e-16
	-3.424389159484277e-17
	-2.799606080876400e-14
	9.708508989274547e-06
	5.520231466003936e-04
	1.422266329879992e-04
	4.829656057499883e-01

 96	9.600000000000006e-01
	-6.024759736721091e-16
	-3.577405472297920e-17
	-2.806659325383344e-14
	1.004136633679735e-05
	5.610086801886772e-04
	1.477916730554604e-04
	4.829656727904924e-01

 97	9.700000000000006e-01
	-5.690835020097387e-16
	-3.737237372495603e-17
	-2.813561187078220e-14
	1.038299087807711e-05
	5.698782119000450e-04
	1.534459820599004e-04
	4.829657409063792e-01

 98	9.800000000000006e-01
	-5.358994149926865e-16
	-3.904219893876614e-17
	-2.820319780063513e-14
	1.073371860034218e-05
	5.786308916733157e-04
	1.591883956419043e-04
	4.829658100836213e-01

 99	9.900000000000007e-01
	-5.029123744510235e-16
	-4.078706572206433e-17
	-2.826942686074033e-14
	1.109389851502895e-05
	5.872659363648347e-04
	1.650177412718079e-04
	4.829658803080937e-01

 100	1.000000000000001e+00
	-4.701118334676185e-16
	-4.261070549896334e-17
	-2.833436986938726e-14
	1.146389330778923e-05
	5.957826381210780e-04
	1.709328389626519e-04
	4.829659515655798e-01

 101	1.010000000000001e+00
	-4.374879840752778e-16
	-4.451705750505075e-17
	-2.839809295189266e-14
	1.184408003537735e-05
	6.041803705065237e-04
	1.769325020553720e-04
	4.829660238417834e-01

 102	1.020000000000001e+00
	-4.050317085152516e-16
	-4.651028127496313e-17
	-2.846065782866456e-14
	1.223485087133345e-05
	6.124585926801693e-04
	1.830155380552667e-04
	4.829660971223395e-01

 103	1.030000000000001e+00
	-3.727345338947649e-16
	-4.859476991944229e-17
	-2.852212208581794e-14
	1.263661390271064e-05
	6.206168518872771e-04
	1.891807495015920e-04
	4.829661713928221e-01

 104	1.040000000000001e+00
	-3.405885900809605e-16
	-5.077516424144516e-17
	-2.858253942896030e-14
	1.304979398041335e-05
	6.286547845062410e-04
	1.954269348546504e-04
	4.829662466387539e-01

 105	1.050000000000001e+00
	-3.085865706710757e-16
	-5.305636774364359e-17
	-2.864195992079466e-14
	1.347483362602845e-05
	6.365721158646769e-04
	2.017528893870184e-04
	4.829663228456213e-01

 106	1.060000000000001e+00
	-2.767216968816454e-16
	-5.544356258247050e-17
	-2.870043020320621e-14
	1.391219399834421e-05
	6.443686590143566e-04
	2.081574060675783e-04
	4.829663999988849e-01

 107	1.070000000000001e+00
	-2.449876842048358e-16
	-5.794222652677587e-17
	-2.875799370450251e-14
	1.436235592306708e-05
	6.520443126317649e-04
	2.146392764287980e-04
	4.829664780839846e-01

 108	1.080000000000001e+00
	-2.133787116853403e-16
	-6.055815098207643e-17
	-2.881469083247749e-14
	1.482582098956790e-05
	6.595990581899775e-04
	2.211972914092502e-04
	4.829665570863537e-01

 109	1.090000000000001e+00
	-1.818893936778474e-16
	-6.329746014437757e-17
	-2.887055915395873e-14
	1.530311271882213e-05
	6.670329565283793e-04
	2.278302421647397e-04
	4.829666369914317e-01

 110	1.100000000000001e+00
	-1.505147539519297e-16
	-6.616663135048270e-17
	-2.892563356148370e-14
	1.579477780705373e-05
	6.743461439293486e-04
	2.345369208425865e-04
	4.829667177846639e-01

 111	1.110000000000001e+00
	-1.192502020184928e-16
	-6.917251669466215e-17
	-2.897994642773060e-14
	1.630138744995215e-05
	6.815388277953745e-04
	2.413161213145909e-04
	4.829667994515217e-01

 112	1.120000000000001e+00
	-8.809151155946515e-17
	-7.232236598440291e-17
	-2.903352774830810e-14
	1.682353875271429e-05
	6.886112820061865e-04
	2.481666398651210e-04
	4.829668819775033e-01

 113	1.130000000000001e+00
	-5.703480084971599e-17
	-7.562385111069354e-17
	-2.908640527348182e-14
	1.736185623156265e-05
	6.955638420230144e-04
	2.550872758314499e-04
	4.829669653481447e-01

 114	1.140000000000001e+00
	-2.607651506806731e-17
	-7.908509191087337e-17
	-2.913860462939014e-14
	1.791699341281821e-05
	7.023968997961568e-04
	2.620768321941138e-04
	4.829670495490229e-01

 115	1.150000000000001e+00
	4.786589598347967e-18
	-8.271468360437978e-17
	-2.919014942927209e-14
	1.848963453605711e-05
	7.091108985223322e-04
	2.691341161155565e-04
	4.829671345657699e-01

 116	1.160000000000001e+00
	3.555746014495535e-17
	-8.652172588371413e-17
	-2.924106137520342e-14
	1.908049636836293e-05
	7.157063272898179e-04
	2.762579394257661e-04
	4.829672203840700e-01

 117	1.170000000000001e+00
	6.623875931698716e-17
	-9.051585374452941e-17
	-2.929136035080622e-14
	1.969033013719586e-05
	7.221837156418578e-04
	2.834471190539270e-04
	4.829673069896716e-01

 118	1.180000000000001e+00
	9.683287662747124e-17
	-9.470727013976754e-17
	-2.934106450537014e-14
	2.031992358994714e-05
	7.285436280823441e-04
	2.907004774054075e-04
	4.829673943683867e-01

 119	1.190000000000001e+00
	1.273419378936316e-16
	-9.910678054316807e-17
	-2.939019032979407e-14
	2.097010318882601e-05
	7.347866585420105e-04
	2.980168426835943e-04
	4.829674825060996e-01

 120	1.200000000000001e+00
	1.577678133530933e-16
	-1.037258295070272e-16
	-2.943875272473028e-14
	2.164173645034375e-05
	7.409134248184057e-04
	3.053950491562503e-04
	4.829675713887661e-01

 121	1.210000000000001e+00
	1.881121244152129e-16
	-1.085765392977187e-16
	-2.948676506128662e-14
	2.233573443931620e-05
	7.469245629985178e-04
	3.128339373661865e-04
	4.829676610024182e-01

 122	1.220000000000001e+00
	2.183762490972072e-16
	-1.136717506898810e-16
	-2.953423923461631e-14
	2.305305442800097e-05
	7.528207218691042e-04
	3.203323542860947e-04
	4.829677513331636e-01

 123	1.230000000000001e+00
	2.485613261896669e-16
	-1.190250659962247e-16
	-2.958118571070262e-14
	2.379470273172462e-05
	7.586025573163918e-04
	3.278891534174347e-04
	4.829678423671922e-01

 124	1.240000000000001e+00
	2.786682581912332e-16
	-1.246508944042943e-16
	-2.962761356662241e-14
	2.456173773313494e-05
	7.642707267138897e-04
	3.355031948332679e-04
	4.829679340907708e-01

 125	1.250000000000001e+00
	3.086977130478210e-16
	-1.305644996839467e-16
	-2.967353052455301e-14
	2.535527310803536e-05
	7.698258832943823e-04
	3.431733451648959e-04
	4.829680264902439e-01

 126	1.260000000000001e+00
	3.386501247281909e-16
	-1.367820503195041e-16
	-2.971894297976850e-14
	2.617648126662412e-05
	7.752686704998607e-04
	3.508984775321134e-04
	4.829681195520369e-01

 127	1.270000000000001e+00
	3.685256926645083e-16
	-1.433206721080552e-16
	-2.976385602285656e-14
	2.702659702486887e-05
	7.805997163011055e-04
	3.586774714168302e-04
	4.829682132626512e-01

 128	1.280000000000001e+00
	3.983243800838202e-16
	-1.501985032499096e-16
	-2.980827345637222e-14
	2.790692152169026e-05
	7.858196274766634e-04
	3.665092124796903e-04
	4.829683076086616e-01

 129	1.290000000000001e+00
	4.280459112548105e-16
	-1.574347519382236e-16
	-2.985219780613627e-14
	2.881882639861299e-05
	7.909289838393449e-04
	3.743925923192370e-04
	4.829684025767156e-01

 130	1.300000000000001e+00
	4.576897676731536e-16
	-1.650497564318487e-16
	-2.989563032737807e-14
	2.976375825955504e-05
	7.959283323967550e-04
	3.823265081730290e-04
	4.829684981535264e-01

 131	1.310000000000001e+00
	4.872551832083841e-16
	-1.730650475679449e-16
	-2.993857100591785e-14
	3.074324342946385e-05
	8.008181814309376e-04
	3.903098625599691e-04
	4.829685943258750e-01

 132	1.320000000000001e+00
	5.167411382364892e-16
	-1.815034136383268e-16
	-2.998101855458554e-14
	3.175889303156487e-05
	8.055989944809179e-04
	3.983415628629727e-04
	4.829686910805961e-01

 133	1.330000000000001e+00
	5.461463527840190e-16
	-1.903889675151124e-16
	-3.002297040507506e-14
	3.281240840404290e-05
	8.102711842106209e-04
	4.064205208508934e-04
	4.829687884045816e-01

 134	1.340000000000001e+00
	5.754692787127660e-16
	-1.997472158664767e-16
	-3.006442269544355e-14
	3.390558687803102e-05
	8.148351061435538e-04
	4.145456521384948e-04
	4.829688862847667e-01

 135	1.350000000000001e+00
	6.047080909786560e-16
	-2.096051302514054e-16
	-3.010537025347728e-14
	3.504032793979541e-05
	8.192910522445148e-04
	4.227158755830175e-04
	4.829689847081258e-01

 136	1.360000000000001e+00
	6.338606780043763e-16
	-2.199912198225511e-16
	-3.014580657616645e-14
	3.621863980097359e-05
	8.236392443276116e-04
	4.309301126157145e-04
	4.829690836616680e-01

 137	1.370000000000001e+00
	6.629246312131916e-16
	-2.309356052979667e-16
	-3.018572380555573e-14
	3.744264640160839e-05
	8.278798272689831e-04
	4.391872865065258e-04
	4.829691831324192e-01

 138	1.380000000000001e+00
	6.918972337803435e-16
	-2.424700937847592e-16
	-3.022511270126880e-14
	3.871459487147677e-05
	8.320128620017606e-04
	4.474863215597954e-04
	4.829692831074227e-01

 139	1.390000000000001e+00
	7.207754486708134e-16
	-2.546282539500395e-16
	-3.026396261004562e-14
	4.003686347581990e-05
	8.360383182701881e-04
	4.558261422387763e-04
	4.829693835737200e-01

 140	1.400000000000001e+00
	7.495559060450201e-16
	-2.674454909361683e-16
	-3.030226143267585e-14
	4.141197007195161e-05
	8.399560671192101e-04
	4.642056722163642e-04
	4.829694845183445e-01

 141	1.410000000000001e+00
	7.782348901306590e-16
	-2.809591203077609e-16
	-3.033999558876784e-14
	4.284258110331927e-05
	8.437658730955418e-04
	4.726238333493171e-04
	4.829695859283085e-01

 142	1.420000000000001e+00
	8.068083256773425e-16
	-2.952084401968295e-16
	-3.037714997985601e-14
	4.433152115731235e-05
	8.474673861360561e-04
	4.810795445729446e-04
	4.829696877905885e-01

 143	1.430000000000001e+00
	8.352717641316483e-16
	-3.102348006796385e-16
	-3.041370795142026e-14
	4.588178311237349e-05
	8.510601331195130e-04
	4.895717207130222e-04
	4.829697900921105e-01

 144	1.440000000000001e+00
	8.636203696946023e-16
	-3.260816692743711e-16
	-3.044965125447469e-14
	4.749653889864506e-05
	8.545435090581254e-04
	4.980992712114475e-04
	4.829698928197381e-01

 145	1.450000000000001e+00
	8.918489054501847e-16
	-3.427946912930434e-16
	-3.048496000747210e-14
	4.917915089433876e-05
	8.579167679064265e-04
	5.066610987619239e-04
	4.829699959602505e-01

 146	1.460000000000001e+00
	9.199517197830822e-16
	-3.604217436152295e-16
	-3.051961265937110e-14
	5.093318397708993e-05
	8.611790129663328e-04
	5.152560978517278e-04
	4.829700995003308e-01

 147	1.470000000000001e+00
	9.479227333368739e-16
	-3.790129802762373e-16
	-3.055358595482258e-14
	5.276241824554830e-05
	8.643291868694782e-04
	5.238831532054472e-04
	4.829702034265424e-01

 148	1.480000000000001e+00
	9.757554267982171e-16
	-3.986208680807362e-16
	-3.058685490254709e-14
	5.467086242113718e-05
	8.673660611207567e-04
	5.325411381263585e-04
	4.829703077253130e-01

 149	1.490000000000001e+00
	1.003442829830820e-15
	-4.193002102671118e-16
	-3.061939274810039e-14
	5.666276793301697e-05
	8.702882251909411e-04
	5.412289127310012e-04
	4.829704123829097e-01

 150	1.500000000000001e+00
	1.030977511521813e-15
	-4.411081560617012e-16
	-3.065117095235170e-14
	5.874264368049882e-05
	8.730940751512734e-04
	5.499453220724000e-04
	4.829705173854202e-01

 151	1.510000000000001e+00
	1.058351572744115e-15
	-4.641041937802536e-16
	-3.068215917713173e-14
	6.091527145611304e-05
	8.757818018493812e-04
	5.586891941473502e-04
	4.829706227187239e-01

 152	1.520000000000001e+00
	1.085556640879463e-15
	-4.883501249621330e-16
	-3.071232527963866e-14
	6.318572199881644e-05
	8.783493786339502e-04
	5.674593377831949e-04
	4.829707283684725e-01

 153	1.530000000000001e+00
	1.112583867387562e-15
	-5.139100168676898e-16
	-3.074163531731833e-14
	6.555937162996137e-05
	8.807945486456892e-04
	5.762545403996806e-04
	4.829708343200578e-01
