Title: **.subckt gm_id_pmos
Date: Sat Jun 12 17:34:54  2021
Plotname: DC transfer characteristic
Flags: real
No. Variables: 8
No. Points: 181
Variables:
	0	v(v-sweep)	voltage
	1	@m.xm1.msky130_fd_pr__pfet_01v8_lvt[cgb]	capacitance
	2	@m.xm1.msky130_fd_pr__pfet_01v8_lvt[cgd]	capacitance
	3	@m.xm1.msky130_fd_pr__pfet_01v8_lvt[cgs]	capacitance
	4	@m.xm1.msky130_fd_pr__pfet_01v8_lvt[gds]	admittance
	5	@m.xm1.msky130_fd_pr__pfet_01v8_lvt[gm]	admittance
	6	i(@m.xm1.msky130_fd_pr__pfet_01v8_lvt[id])	current
	7	v(@m.xm1.msky130_fd_pr__pfet_01v8_lvt[vth])	voltage
Values:
 0	0.000000000000000e+00
	-9.530325458083208e-14
	-3.229344711619415e-20
	-7.058023099113046e-16
	1.519873148905640e-12
	2.587581332615295e-10
	9.501817451002420e-12
	4.566118671354136e-01

 1	1.000000000000000e-02
	-9.480553100624523e-14
	-3.568044534996359e-20
	-7.614939071022604e-16
	1.995271937955689e-12
	3.392895397676935e-10
	1.247401471941258e-11
	4.566118671354288e-01

 2	2.000000000000000e-02
	-9.431363013951869e-14
	-3.940910184694854e-20
	-8.222024693348003e-16
	2.618443529501948e-12
	4.446524850834248e-10
	1.637018867320380e-11
	4.566118671354550e-01

 3	3.000000000000000e-02
	-9.382727702147482e-14
	-4.351228448377450e-20
	-8.883494126690529e-16
	3.434859618683681e-12
	5.823894687218496e-10
	2.147473128885544e-11
	4.566118671354857e-01

 4	4.000000000000000e-02
	-9.334619136195932e-14
	-4.802597570365731e-20
	-9.604001214978516e-16
	4.503755573330895e-12
	7.622783688063166e-10
	2.815816762656426e-11
	4.566118671355250e-01

 5	5.000000000000000e-02
	-9.287008548562274e-14
	-5.298960503808715e-20
	-1.038871096849888e-15
	5.902184523641347e-12
	9.969682722473257e-10
	3.690256302867656e-11
	4.566118671355753e-01

 6	6.000000000000000e-02
	-9.239866200261785e-14
	-5.844642644189055e-20
	-1.124338223791989e-15
	7.730211396560339e-12
	1.302783634262073e-09
	4.833410051539092e-11
	4.566118671356452e-01

 7	7.000000000000001e-02
	-9.193161118949488e-14
	-6.444394643507507e-20
	-1.217446231698027e-15
	1.011754158835047e-11
	1.700735596745887e-09
	6.326470056816744e-11
	4.566118671357327e-01

 8	8.000000000000000e-02
	-9.146860806866795e-14
	-7.103440948818434e-20
	-1.318919412489927e-15
	1.323194299783829e-11
	2.217785698056870e-09
	8.274497567356714e-11
	4.566118671358487e-01

 9	9.000000000000000e-02
	-9.100930917763189e-14
	-7.827534751780525e-20
	-1.429573654155592e-15
	1.728989237481922e-11
	2.888413536793554e-09
	1.081312962473933e-10
	4.566118671359995e-01

 10	9.999999999999999e-02
	-9.055334902138264e-14
	-8.623020077959777e-20
	-1.550329840488483e-15
	2.256995557104216e-11
	3.756545628285913e-09
	1.411702894076263e-10
	4.566118671361962e-01

 11	1.100000000000000e-01
	-9.010033620324477e-14
	-9.496901786419529e-20
	-1.682228663346460e-15
	2.942949271146818e-11
	4.877906924817784e-09
	1.841046871990310e-10
	4.566118671364520e-01

 12	1.200000000000000e-01
	-8.964984923052313e-14
	-1.045692429229896e-19
	-1.826446890682956e-15
	3.832535745170056e-11
	6.322858284432455e-09
	2.398050671079077e-10
	4.566118671367842e-01

 13	1.300000000000000e-01
	-8.920143199223519e-14
	-1.151165986816419e-19
	-1.984315131708653e-15
	4.983932508002339e-11
	8.179781506981437e-09
	3.119326555550734e-10
	4.566118671372127e-01

 14	1.400000000000000e-01
	-8.875458890684125e-14
	-1.267060742424239e-19
	-2.157337139087026e-15
	6.470902415365644e-11
	1.055906747244816e-08
	4.051389548019215e-10
	4.566118671377660e-01

 15	1.500000000000000e-01
	-8.830877973862532e-14
	-1.394430271326123e-19
	-2.347210686176631e-15
	8.386514334767868e-11
	1.359775196766778e-08
	5.253084583280418e-10
	4.566118671384808e-01

 16	1.600000000000000e-01
	-8.786341408242196e-14
	-1.534444095220095e-19
	-2.555850054103407e-15
	1.084756180540003e-10
	1.746482855938864e-08
	6.798510923813122e-10
	4.566118671394012e-01

 17	1.700000000000000e-01
	-8.741784551795497e-14
	-1.688401290017322e-19
	-2.785410158023102e-15
	1.399973461962606e-10
	2.236725068706105e-08
	8.780512291175592e-10
	4.566118671405794e-01

 18	1.800000000000000e-01
	-8.697136543735021e-14
	-1.857745547792412e-19
	-3.038312333527835e-15
	1.802357160781645e-10
	2.855662082322345e-08
	1.131480161679813e-09
	4.566118671420879e-01

 19	1.900000000000000e-01
	-8.652319655256589e-14
	-2.044081805884992e-19
	-3.317271791997931e-15
	2.314118319639381e-10
	3.633656096572506e-08
	1.454478879042310e-09
	4.566118671440086e-01

 20	2.000000000000000e-01
	-8.607248609376201e-14
	-2.249194560227012e-19
	-3.625326736862099e-15
	2.962367878253410e-10
	4.607077684190705e-08
	1.864717988340574e-09
	4.566118671464484e-01

 21	2.100000000000000e-01
	-8.561829871532179e-14
	-2.475067983509668e-19
	-3.965869109901123e-15
	3.779916775867350e-10
	5.819188098936703e-08
	2.383841985719660e-09
	4.566118671495364e-01

 22	2.200000000000001e-01
	-8.515960913381446e-14
	-2.723907971525330e-19
	-4.342676905839292e-15
	4.806112791160080e-10
	7.321113968635205e-08
	3.038206183997653e-09
	4.566118671534288e-01

 23	2.300000000000001e-01
	-8.469529453244743e-14
	-2.998166242567516e-19
	-4.759947951381221e-15
	6.087685783924932e-10
	9.172946287521606e-08
	3.859716980038845e-09
	4.566118671583161e-01

 24	2.400000000000001e-01
	-8.422412678062228e-14
	-3.300566614651492e-19
	-5.222334986974447e-15
	7.679566091596092e-10
	1.144501612932061e-07
	4.886790324548415e-09
	4.566118671644244e-01

 25	2.500000000000001e-01
	-8.374476453664987e-14
	-3.634133582825504e-19
	-5.734981809625350e-15
	9.645635910132970e-10
	1.421942308795782e-07
	6.165449666403644e-09
	4.566118671720300e-01

 26	2.600000000000001e-01
	-8.325574532849691e-14
	-4.002223313027790e-19
	-6.303560124984407e-15
	1.205937172536442e-09
	1.759191506736750e-07
	7.750593405496778e-09
	4.566118671814591e-01

 27	2.700000000000001e-01
	-8.275547774398687e-14
	-4.408557158510782e-19
	-6.934306606902384e-15
	1.500433810511755e-09
	2.167423369439689e-07
	9.707472619845941e-09
	4.566118671930984e-01

 28	2.800000000000001e-01
	-8.224223391078321e-14
	-4.857257788138113e-19
	-7.634059461834069e-15
	1.857449960395414e-09
	2.659704112731715e-07
	1.211343148381551e-08
	4.566118672074114e-01

 29	2.900000000000001e-01
	-8.171414251033132e-14
	-5.352887990763143e-19
	-8.410293532557829e-15
	2.287432745271433e-09
	3.251352433361076e-07
	1.505997358910697e-08
	4.566118672249380e-01

 30	3.000000000000001e-01
	-8.116918265098455e-14
	-5.900492183901423e-19
	-9.271152640352212e-15
	2.801868943595458e-09
	3.960372675952306e-07
	1.865522491467920e-08
	4.566118672463234e-01

 31	3.100000000000001e-01
	-8.060517902526621e-14
	-6.505640605130904e-19
	-1.022547744933477e-14
	3.413252253930375e-09
	4.807958264618245e-07
	2.302686568677273e-08
	4.566118672723259e-01

 32	3.200000000000001e-01
	-8.001979889475357e-14
	-7.174476097920667e-19
	-1.128282663818370e-14
	4.135029607183998e-09
	5.819052786030035e-07
	2.832559603136908e-08
	4.566118673038442e-01

 33	3.300000000000001e-01
	-7.941055158160236e-14
	-7.913763316668977e-19
	-1.245348858743689e-14
	4.981527612005395e-09
	7.022943844424740e-07
	3.472918172143047e-08
	4.566118673419342e-01

 34	3.400000000000001e-01
	-7.877479129377071e-14
	-8.730940065576409e-19
	-1.374848014983022e-14
	5.967859972850678e-09
	8.453851248238848e-07
	4.244709472821910e-08
	4.566118673878432e-01

 35	3.500000000000001e-01
	-7.810972426367007e-14
	-9.634170350123648e-19
	-1.517952839526268e-14
	7.109816016104188e-09
	1.015145729713924e-06
	5.172571791897157e-08
	4.566118674430346e-01

 36	3.600000000000002e-01
	-7.741242132522088e-14
	-1.063239855694558e-18
	-1.675903055652808e-14
	8.423729562306904e-09
	1.216131423725512e-06
	6.285402450693282e-08
	4.566118675092292e-01

 37	3.700000000000002e-01
	-7.667983717535426e-14
	-1.173540398805578e-18
	-1.849998681266157e-14
	9.926326663962066e-09
	1.453505402989327e-06
	7.616957265212972e-08
	4.566118675884338e-01

 38	3.800000000000002e-01
	-7.590883764102791e-14
	-1.295385476125208e-18
	-2.041590012143658e-14
	1.163455057785415e-08
	1.733032061036865e-06
	9.206457775513166e-08
	4.566118676829800e-01

 39	3.900000000000002e-01
	-7.509623627509898e-14
	-1.429935985582214e-18
	-2.252063716137692e-14
	1.356536306395858e-08
	2.061034743492934e-06
	1.109917457233465e-07
	4.566118677955643e-01

 40	4.000000000000002e-01
	-7.423884150340583e-14
	-1.578451784085498e-18
	-2.482824469578321e-14
	1.573552283477951e-08
	2.444311609296896e-06
	1.334694788066807e-07
	4.566118679292684e-01

 41	4.100000000000002e-01
	-7.333351530899152e-14
	-1.742296058645744e-18
	-2.735271646708346e-14
	1.816134463163995e-08
	2.890005729066895e-06
	1.600860130371911e-07
	4.566118680875912e-01

 42	4.200000000000002e-01
	-7.237724403746598e-14
	-1.922939004463755e-18
	-3.010770720691676e-14
	2.085844566186290e-08
	3.405429420069594e-06
	1.915020258980076e-07
	4.566118682744603e-01

 43	4.300000000000002e-01
	-7.136722131717791e-14
	-2.121960601974096e-18
	-3.310619261962746e-14
	2.384148949044641e-08
	3.997847801410441e-06
	2.284512770006237e-07
	4.566118684942445e-01

 44	4.400000000000002e-01
	-7.030094230018868e-14
	-2.341052275506472e-18
	-3.636007732727388e-14
	2.712394033767600e-08
	4.674232125928998e-06
	2.717389220665109e-07
	4.566118687517308e-01

 45	4.500000000000002e-01
	-6.917630745727325e-14
	-2.582017217155992e-18
	-3.987975673303734e-14
	3.071784249797086e-08
	5.440998772776666e-06
	3.222372733256401e-07
	4.566118690521079e-01

 46	4.600000000000002e-01
	-6.799173304286990e-14
	-2.846769173469515e-18
	-4.367364343303583e-14
	3.463363980732352e-08
	6.303753852452870e-06
	3.808789601044822e-07
	4.566118694009233e-01

 47	4.700000000000003e-01
	-6.674626415777832e-14
	-3.137329522057214e-18
	-4.774767391073136e-14
	3.888004852877730e-08
	7.267065214925885e-06
	4.486476542869448e-07
	4.566118698040294e-01

 48	4.800000000000003e-01
	-6.543968518630037e-14
	-3.455822511782904e-18
	-5.210481636136440e-14
	4.346399378071715e-08
	8.334282605354368e-06
	5.265667405556299e-07
	4.566118702675128e-01

 49	4.900000000000003e-01
	-6.407262140719514e-14
	-3.804468604028514e-18
	-5.674460505961524e-14
	4.839061508454689e-08
	9.507422661872145e-06
	6.156865009018757e-07
	4.566118707976213e-01

 50	5.000000000000002e-01
	-6.264662492768954e-14
	-4.185575932244370e-18
	-6.166273005528752e-14
	5.366334137050786e-08
	1.078712890641506e-05
	7.170705188272343e-07
	4.566118714006796e-01

 51	5.100000000000002e-01
	-6.116423791724669e-14
	-4.601529989228421e-18
	-6.685071249869950e-14
	5.928403057557778e-08
	1.217270889641897e-05
	8.317820709112900e-07
	4.566118720830138e-01

 52	5.200000000000002e-01
	-5.962902654527311e-14
	-5.054781751023072e-18
	-7.229569498742372e-14
	6.525316448309246e-08
	1.366224263207393e-05
	9.608712542287956e-07
	4.566118728508693e-01

 53	5.300000000000002e-01
	-5.804558012231356e-14
	-5.547834545960701e-18
	-7.798037261875851e-14
	7.157008621401795e-08
	1.525274946710690e-05
	1.105363503311235e-06
	4.566118737103472e-01

 54	5.400000000000003e-01
	-5.641947169802944e-14
	-6.083230069137674e-18
	-8.388308386355919e-14
	7.823326606467786e-08
	1.694039613101427e-05
	1.266249997510226e-06
	4.566118746673421e-01

 55	5.500000000000003e-01
	-5.475717868132763e-14
	-6.663534018017203e-18
	-8.997807125725083e-14
	8.524058121168521e-08
	1.872072649608128e-05
	1.444480273563286e-06
	4.566118757275022e-01

 56	5.600000000000003e-01
	-5.306596472913726e-14
	-7.291321876325514e-18
	-9.623591093014637e-14
	9.258959596336765e-08
	2.058889432408346e-05
	1.640957165522151e-06
	4.566118768961981e-01

 57	5.700000000000003e-01
	-5.135372694015155e-14
	-7.969165394967259e-18
	-1.026240981972411e-13
	1.002778313720123e-07
	2.253988288126379e-05
	1.856534018408964e-06
	4.566118781785059e-01

 58	5.800000000000003e-01
	-4.962881499043362e-14
	-8.699620307078944e-18
	-1.091077650255455e-13
	1.083030157169580e-07
	2.456869925139537e-05
	2.092013979827315e-06
	4.566118795792013e-01

 59	5.900000000000003e-01
	-4.789983096720880e-14
	-9.485215769436422e-18
	-1.156504954500508e-13
	1.166633102305423e-07
	2.667053560413047e-05
	2.348151074095495e-06
	4.566118811027714e-01

 60	6.000000000000003e-01
	-4.617542005493716e-14
	-1.032844594741303e-17
	-1.222151980079319e-13
	1.253575071468005e-07
	2.884089391019174e-05
	2.625652707605897e-06
	4.566118827534237e-01

 61	6.100000000000003e-01
	-4.446406275277602e-14
	-1.123176406166442e-17
	-1.287649907595727e-13
	1.343851994883592e-07
	3.107567416688163e-05
	2.925183237574758e-06
	4.566118845351099e-01

 62	6.200000000000003e-01
	-4.277387891562436e-14
	-1.219757909999923e-17
	-1.352640547709658e-13
	1.437469238542160e-07
	3.337122886565092e-05
	3.247368251121852e-06
	4.566118864515504e-01

 63	6.300000000000003e-01
	-4.111245268778099e-14
	-1.322825527694051e-17
	-1.416784158686185e-13
	1.534442788012382e-07
	3.572438815295072e-05
	3.592799238301553e-06
	4.566118885062643e-01

 64	6.400000000000003e-01
	-3.948668551239502e-14
	-1.432611420574729e-17
	-1.479766214361174e-13
	1.634800222597661e-07
	3.813246099996638e-05
	3.962038392190910e-06
	4.566118907025952e-01

 65	6.500000000000004e-01
	-3.790268209085366e-14
	-1.549343964157582e-17
	-1.541302880768796e-13
	1.738581518612447e-07
	4.059321787687400e-05
	4.355623323684596e-06
	4.566118930437405e-01

 66	6.600000000000004e-01
	-3.636567169950119e-14
	-1.673248456658107e-17
	-1.601145060409780e-13
	1.845839721730579e-07
	4.310486011911397e-05
	4.774071532389569e-06
	4.566118955327792e-01

 67	6.700000000000004e-01
	-3.487996489876658e-14
	-1.804548032228145e-17
	-1.659080963357523e-13
	1.956641527232211e-07
	4.566598056200985e-05
	5.217884524012841e-06
	4.566118981726947e-01

 68	6.800000000000004e-01
	-3.344894359876819e-14
	-1.943464745319567e-17
	-1.714937254922960e-13
	2.071067804362670e-07
	4.827551925982616e-05
	5.687551506669744e-06
	4.566119009663965e-01

 69	6.900000000000004e-01
	-3.207508081764524e-14
	-2.090220790804460e-17
	-1.768578903718994e-13
	2.189214097593162e-07
	5.093271731104184e-05
	6.183552632718145e-06
	4.566119039167399e-01

 70	7.000000000000004e-01
	-3.075998535443176e-14
	-2.245039824832380e-17
	-1.819907907864458e-13
	2.311191133847640e-07
	5.363707106040864e-05
	6.706361779128710e-06
	4.566119070265462e-01

 71	7.100000000000004e-01
	-2.950446600099158e-14
	-2.408148353512753e-17
	-1.868861109733837e-13
	2.437125361104061e-07
	5.638828828522750e-05
	7.256448878705661e-06
	4.566119102986072e-01

 72	7.200000000000004e-01
	-2.830860978809183e-14
	-2.579777159938328e-17
	-1.915407322425322e-13
	2.567159540430127e-07
	5.918624741867092e-05
	7.834281827678143e-06
	4.566119137357091e-01

 73	7.300000000000004e-01
	-2.717186901437646e-14
	-2.760162744370941e-17
	-1.959543986986405e-13
	2.701453410617985e-07
	6.203096042026834e-05
	8.440328003409478e-06
	4.566119173406295e-01

 74	7.400000000000004e-01
	-2.609315234181861e-14
	-2.949548757166182e-17
	-2.001293562331864e-13
	2.840184442203997e-07
	6.492253956544697e-05
	9.075055430294341e-06
	4.566119211161535e-01

 75	7.500000000000004e-01
	-2.507091595332819e-14
	-3.148187408871420e-17
	-2.040699823912759e-13
	2.983548695813110e-07
	6.786116817924735e-05
	9.738933633333973e-06
	4.566119250650741e-01

 76	7.600000000000005e-01
	-2.410325156361971e-14
	-3.356340846596825e-17
	-2.077824216490983e-13
	3.131761798448011e-07
	7.084707516854337e-05
	1.043243421821647e-05
	4.566119291901949e-01

 77	7.700000000000005e-01
	-2.318796887614587e-14
	-3.574282490035450e-17
	-2.112742374195413e-13
	3.285060050499989e-07
	7.388051309696747e-05
	1.115603121467843e-05
	4.566119334943398e-01

 78	7.800000000000005e-01
	-2.232267082973151e-14
	-3.802298324263711e-17
	-2.145540889972232e-13
	3.443701675856729e-07
	7.696173948316968e-05
	1.191020121701692e-05
	4.566119379803383e-01

 79	7.900000000000005e-01
	-2.150482064114363e-14
	-4.040688149625072e-17
	-2.176314388386545e-13
	3.607968227484588e-07
	8.009100097388257e-05
	1.269542335225220e-05
	4.566119426510435e-01

 80	8.000000000000005e-01
	-2.073180020420007e-14
	-4.289766791577463e-17
	-2.205162931551073e-13
	3.778166161203481e-07
	8.326852003859689e-05
	1.351217910292231e-05
	4.566119475093195e-01

 81	8.100000000000005e-01
	-2.000095984619352e-14
	-4.549865275396274e-17
	-2.232189768207577e-13
	3.954628591045979e-07
	8.649448384448683e-05
	1.436095200800234e-05
	4.566119525580432e-01

 82	8.200000000000005e-01
	-1.930965977253985e-14
	-4.821331972121132e-17
	-2.257499420668325e-13
	4.137717240537863e-07
	8.976903499253221e-05
	1.524222726213403e-05
	4.566119578000970e-01

 83	8.300000000000005e-01
	-1.865530376149020e-14
	-5.104533723188946e-17
	-2.281196093120831e-13
	4.327824605447217e-07
	9.309226382403126e-05
	1.615649123029820e-05
	4.566119632383766e-01

 84	8.400000000000005e-01
	-1.803536581690635e-14
	-5.399856951876760e-17
	-2.303382377203895e-13
	4.525376345014242e-07
	9.646420203762992e-05
	1.710423089230998e-05
	4.566119688757775e-01

 85	8.500000000000005e-01
	-1.744741056426596e-14
	-5.707708770063838e-17
	-2.324158226181717e-13
	4.730833920352547e-07
	9.988481738834491e-05
	1.808593322907151e-05
	4.566119747151988e-01

 86	8.600000000000005e-01
	-1.688910819862026e-14
	-6.028518088979584e-17
	-2.343620166868661e-13
	4.944697500641701e-07
	1.033540092703640e-04
	1.910208456038812e-05
	4.566119807595315e-01

 87	8.700000000000006e-01
	-1.635824477725814e-14
	-6.362736742595309e-17
	-2.361860718116913e-13
	5.167509159869553e-07
	1.068716050137117e-04
	2.015316984231229e-05
	4.566119870116593e-01

 88	8.800000000000006e-01
	-1.585272860639699e-14
	-6.710840632196614e-17
	-2.378967985667438e-13
	5.399856389270861e-07
	1.104373567506780e-04
	2.123967193041383e-05
	4.566119934744560e-01

 89	8.900000000000006e-01
	-1.537059341030650e-14
	-7.073330900481042e-17
	-2.395025405053212e-13
	5.642375953228338e-07
	1.140509387310006e-04
	2.236207081405114e-05
	4.566120001507745e-01

 90	9.000000000000006e-01
	-1.490999890073663e-14
	-7.450735143303307e-17
	-2.410111606686959e-13
	5.895758119272155e-07
	1.177119449851139e-04
	2.352084282561055e-05
	4.566120070434512e-01

 91	9.100000000000006e-01
	-1.446922929027655e-14
	-7.843608666957775e-17
	-2.424300379995623e-13
	6.160751295966879e-07
	1.214198872524722e-04
	2.471645982776800e-05
	4.566120141552910e-01

 92	9.200000000000006e-01
	-1.404669021964417e-14
	-8.252535798675198e-17
	-2.437660716279092e-13
	6.438167115888376e-07
	1.251741931071498e-04
	2.594938838107058e-05
	4.566120214890695e-01

 93	9.300000000000006e-01
	-1.364090449877928e-14
	-8.678131257824275e-17
	-2.450256912729994e-13
	6.728886004627621e-07
	1.289742042258732e-04
	2.722008889352811e-05
	4.566120290475259e-01

 94	9.400000000000006e-01
	-1.325050699685489e-14
	-9.121041595169272e-17
	-2.462148722658317e-13
	7.033863280793740e-07
	1.328191747545685e-04
	2.852901475341188e-05
	4.566120368333568e-01

 95	9.500000000000006e-01
	-1.287423895793667e-14
	-9.581946707438938e-17
	-2.473391539360786e-13
	7.354135836377396e-07
	1.367082697386210e-04
	2.987661144606187e-05
	4.566120448492096e-01

 96	9.600000000000006e-01
	-1.251094196740099e-14
	-1.006156143442322e-16
	-2.484036603229791e-13
	7.690829451561544e-07
	1.406405635896347e-04
	3.126331565520108e-05
	4.566120530976860e-01

 97	9.700000000000006e-01
	-1.215955174936145e-14
	-1.056063724583215e-16
	-2.494131223599253e-13
	8.045166803176029e-07
	1.446150385676636e-04
	3.268955434901167e-05
	4.566120615813219e-01

 98	9.800000000000006e-01
	-1.181909193693771e-14
	-1.107996402522332e-16
	-2.503719008478843e-13
	8.418476231475097e-07
	1.486305832629282e-04
	3.415574385104065e-05
	4.566120703025963e-01

 99	9.900000000000007e-01
	-1.148866792472005e-14
	-1.162037195843595e-16
	-2.512840096746895e-13
	8.812201335791010e-07
	1.526859910650690e-04
	3.566228889587213e-05
	4.566120792639153e-01

 100	1.000000000000001e+00
	-1.116746088569548e-14
	-1.218273353415890e-16
	-2.521531388573872e-13
	9.227911475882547e-07
	1.567799586111618e-04
	3.720958166939181e-05
	4.566120884676126e-01

 101	1.010000000000001e+00
	-1.085472201255033e-14
	-1.276796566450282e-16
	-2.529826770854721e-13
	9.667313262442690e-07
	1.609110842061757e-04
	3.879800083339941e-05
	4.566120979159398e-01

 102	1.020000000000001e+00
	-1.054976702506151e-14
	-1.337703193374693e-16
	-2.537757335261854e-13
	1.013226312724279e-06
	1.650778662114024e-04
	4.042791053426944e-05
	4.566121076110635e-01

 103	1.030000000000001e+00
	-1.025197097063573e-14
	-1.401094498378443e-16
	-2.545351587213337e-13
	1.062478107072099e-06
	1.692787013977209e-04
	4.209965939532347e-05
	4.566121175550563e-01

 104	1.040000000000001e+00
	-9.960763333421248e-15
	-1.467076904520105e-16
	-2.552635644603944e-13
	1.114706569243266e-06
	1.735118832614707e-04
	4.381357949255047e-05
	4.566121277498942e-01

 105	1.050000000000001e+00
	-9.675623458309179e-15
	-1.535762262337717e-16
	-2.559633425589621e-13
	1.170151061758698e-06
	1.777756003012688e-04
	4.556998531329346e-05
	4.566121381974489e-01

 106	1.060000000000001e+00
	-9.396076289140635e-15
	-1.607268134952630e-16
	-2.566366825065745e-13
	1.229072244076682e-06
	1.820679342543853e-04
	4.736917269750279e-05
	4.566121488994803e-01

 107	1.070000000000001e+00
	-9.121688415155724e-15
	-1.681718100714470e-16
	-2.572855879752089e-13
	1.291754031574071e-06
	1.863868582913647e-04
	4.921141776114892e-05
	4.566121598576264e-01

 108	1.080000000000001e+00
	-8.852064415856106e-15
	-1.759242074497202e-16
	-2.579118922005632e-13
	1.358505732782374e-06
	1.907302351674675e-04
	5.109697580136318e-05
	4.566121710734103e-01

 109	1.090000000000001e+00
	-8.586843491713220e-15
	-1.839976648824494e-16
	-2.585172722638374e-13
	1.429664379225702e-06
	1.950958153293369e-04
	5.302608018287700e-05
	4.566121825482191e-01

 110	1.100000000000001e+00
	-8.325696366333215e-15
	-1.924065456075098e-16
	-2.591032623130338e-13
	1.505597262825045e-06
	1.994812349750199e-04
	5.499894120529310e-05
	4.566121942833031e-01

 111	1.110000000000001e+00
	-8.068322444571433e-15
	-2.011659553099102e-16
	-2.596712657706977e-13
	1.586704696322563e-06
	2.038840140652763e-04
	5.701574495071737e-05
	4.566122062797698e-01

 112	1.120000000000001e+00
	-7.814447210532796e-15
	-2.102917829660504e-16
	-2.602225665801679e-13
	1.673423012494147e-06
	2.083015542839488e-04
	5.907665211125231e-05
	4.566122185385732e-01

 113	1.130000000000001e+00
	-7.563819849268966e-15
	-2.198007442213144e-16
	-2.607583395454053e-13
	1.766227817990235e-06
	2.127311369451784e-04
	6.118179679582997e-05
	4.566122310605147e-01

 114	1.140000000000001e+00
	-7.316211076168718e-15
	-2.297104274614658e-16
	-2.612796598208010e-13
	1.865637517399898e-06
	2.171699208455005e-04
	6.333128531584530e-05
	4.566122438462230e-01

 115	1.150000000000001e+00
	-7.071411158478287e-15
	-2.400393427487616e-16
	-2.617875116073779e-13
	1.972217122479903e-06
	2.216149400594177e-04
	6.552519494902775e-05
	4.566122568961588e-01

 116	1.160000000000001e+00
	-6.829228113971539e-15
	-2.508069738048414e-16
	-2.622827961109041e-13
	2.086582360313870e-06
	2.260631016780584e-04
	6.776357268098554e-05
	4.566122702106024e-01

 117	1.170000000000001e+00
	-6.589486072517577e-15
	-2.620338332342384e-16
	-2.627663388157657e-13
	2.209404092341156e-06
	2.305111834920838e-04
	7.004643392385662e-05
	4.566122837896454e-01

 118	1.180000000000001e+00
	-6.352023787070066e-15
	-2.737415211950840e-16
	-2.632388961263128e-13
	2.341413053564271e-06
	2.349558316222543e-04
	7.237376121152356e-05
	4.566122976331818e-01

 119	1.190000000000001e+00
	-6.116693281429636e-15
	-2.859527877367967e-16
	-2.637011614249110e-13
	2.483404917632052e-06
	2.393935581041638e-04
	7.474550287089856e-05
	4.566123117409076e-01

 120	1.200000000000001e+00
	-5.883358622971242e-15
	-2.986915990388576e-16
	-2.641537705932229e-13
	2.636245688704366e-06
	2.438207384377644e-04
	7.716157166886946e-05
	4.566123261123002e-01

 121	1.210000000000001e+00
	-5.651894809362762e-15
	-3.119832077997350e-16
	-2.645973070404335e-13
	2.800877414805393e-06
	2.482336091176337e-04
	7.962184343462968e-05
	4.566123407466232e-01

 122	1.220000000000001e+00
	-5.422186759116774e-15
	-3.258542280409029e-16
	-2.650323062792890e-13
	2.978324209522028e-06
	2.526282651666681e-04
	8.212615565730541e-05
	4.566123556429100e-01

 123	1.230000000000001e+00
	-5.194128396605906e-15
	-3.403327146077046e-16
	-2.654592600879867e-13
	3.169698559136056e-06
	2.570006577042753e-04
	8.467430605906333e-05
	4.566123707999581e-01

 124	1.240000000000001e+00
	-4.967621822924142e-15
	-3.554482476664426e-16
	-2.658786202931954e-13
	3.376207880319293e-06
	2.613465915903453e-04
	8.726605114424146e-05
	4.566123862163161e-01

 125	1.250000000000001e+00
	-4.742576564689939e-15
	-3.712320225157005e-16
	-2.662908022068165e-13
	3.599161279093749e-06
	2.656617231985701e-04
	8.990110472551288e-05
	4.566124018902850e-01

 126	1.260000000000001e+00
	-4.518908893552501e-15
	-3.877169450495015e-16
	-2.666961877465516e-13
	3.839976444609720e-06
	2.699415583872188e-04
	9.257913642871123e-05
	4.566124178198976e-01

 127	1.270000000000001e+00
	-4.296541209796058e-15
	-4.049377332302343e-16
	-2.670951282679170e-13
	4.100186591204915e-06
	2.741814507523807e-04
	9.529977017869332e-05
	4.566124340029160e-01

 128	1.280000000000001e+00
	-4.075401484013151e-15
	-4.229310249509119e-16
	-2.674879471330688e-13
	4.381447339023440e-06
	2.783766002681007e-04
	9.806258266957508e-05
	4.566124504368250e-01

 129	1.290000000000001e+00
	-3.855422751359517e-15
	-4.417354926884856e-16
	-2.678749420396710e-13
	4.685543397169655e-06
	2.825220524396474e-04
	1.008671018238211e-04
	4.566124671188142e-01

 130	1.300000000000001e+00
	-3.636542653405538e-15
	-4.613919653732045e-16
	-2.682563871310281e-13
	5.014394884034959e-06
	2.866126981202370e-04
	1.037128052460433e-04
	4.566124840457783e-01

 131	1.310000000000001e+00
	-3.418703023051714e-15
	-4.819435579232020e-16
	-2.686325349068670e-13
	5.370063087414857e-06
	2.906432741675660e-04
	1.065991186790128e-04
	4.566125012143001e-01

 132	1.320000000000001e+00
	-3.201849508403375e-15
	-5.034358089180561e-16
	-2.690036179524176e-13
	5.754755432893360e-06
	2.946083651437737e-04
	1.095254144712674e-04
	4.566125186206467e-01

 133	1.330000000000001e+00
	-2.985931231880983e-15
	-5.259168269109300e-16
	-2.693698505018633e-13
	6.170829393659685e-06
	2.985024062902111e-04
	1.124910100678923e-04
	4.566125362607570e-01

 134	1.340000000000001e+00
	-2.770900481199510e-15
	-5.494374459046755e-16
	-2.697314298507590e-13
	6.620795039754382e-06
	3.023196880352438e-04
	1.154951665384842e-04
	4.566125541302371e-01

 135	1.350000000000001e+00
	-2.556712429169946e-15
	-5.740513905439232e-16
	-2.700885376306717e-13
	7.107315891516637e-06
	3.060543623177868e-04
	1.185370871590278e-04
	4.566125722243461e-01

 136	1.360000000000001e+00
	-2.343324879572589e-15
	-5.998154516018586e-16
	-2.704413409580534e-13
	7.633207713018832e-06
	3.097004510291854e-04
	1.216159160673390e-04
	4.566125905379944e-01

 137	1.370000000000001e+00
	-2.130698036617964e-15
	-6.267896723670347e-16
	-2.707899934682263e-13
	8.201434859332617e-06
	3.132518568890675e-04
	1.247307370148303e-04
	4.566126090657331e-01

 138	1.380000000000001e+00
	-1.918794295755145e-15
	-6.550375465619330e-16
	-2.711346362443116e-13
	8.815103779871466e-06
	3.167023770740126e-04
	1.278805722405347e-04
	4.566126278017423e-01

 139	1.390000000000001e+00
	-1.707578053812450e-15
	-6.846262284505901e-16
	-2.714753986499869e-13
	9.477453282472034e-06
	3.200457199082612e-04
	1.310643814964735e-04
	4.566126467398387e-01

 140	1.400000000000001e+00
	-1.497015536650646e-15
	-7.156267558173416e-16
	-2.718123990740819e-13
	1.019184118320467e-05
	3.232755249000022e-04
	1.342810612564385e-04
	4.566126658734557e-01

 141	1.410000000000001e+00
	-1.287074642699491e-15
	-7.481142865215510e-16
	-2.721457455942299e-13
	1.096172700897625e-05
	3.263853863619837e-04
	1.375294441428833e-04
	4.566126851956491e-01

 142	1.420000000000001e+00
	-1.077724800910471e-15
	-7.821683493538988e-16
	-2.724755365660606e-13
	1.179065048724333e-05
	3.293688807886357e-04
	1.408082986086904e-04
	4.566127046990962e-01

 143	1.430000000000001e+00
	-8.689368418106275e-16
	-8.178731099378378e-16
	-2.728018611437682e-13
	1.268220565214791e-05
	3.322195980718492e-04
	1.441163289118800e-04
	4.566127243760851e-01

 144	1.440000000000001e+00
	-6.606828804840677e-16
	-8.553176524335785e-16
	-2.731247997372725e-13
	1.364001052031886e-05
	3.349311765234318e-04
	1.474521754215847e-04
	4.566127442185323e-01

 145	1.450000000000001e+00
	-4.529362104260737e-16
	-8.945962778113794e-16
	-2.734444244106578e-13
	1.466767244173536e-05
	3.374973415353275e-04
	1.508144152926438e-04
	4.566127642179731e-01

 146	1.460000000000001e+00
	-2.456712073376643e-16
	-9.358088194644344e-16
	-2.737607992260582e-13
	1.576874940827436e-05
	3.399119475521206e-04
	1.542015635436966e-04
	4.566127843655740e-01

 147	1.470000000000001e+00
	-3.886324202505191e-17
	-9.790609769275426e-16
	-2.740739805367226e-13
	1.694670779897069e-05
	3.421690228599029e-04
	1.576120745695706e-04
	4.566128046521412e-01

 148	1.480000000000001e+00
	1.675113983302915e-16
	-1.024464668455406e-15
	-2.743840172325710e-13
	1.820487724774268e-05
	3.442628165192067e-04
	1.610443441129078e-04
	4.566128250681328e-01

 149	1.490000000000001e+00
	3.734755811833528e-16
	-1.072138403191460e-15
	-2.746909509411914e-13
	1.954640352474649e-05
	3.461878465978172e-04
	1.644967117123922e-04
	4.566128456036705e-01

 150	1.500000000000001e+00
	5.790513924864560e-16
	-1.122207673622336e-15
	-2.749948161868911e-13
	2.097420051274593e-05
	3.479389487037884e-04
	1.679674636356922e-04
	4.566128662485636e-01

 151	1.510000000000001e+00
	7.842601938996761e-16
	-1.174805368963344e-15
	-2.752956405101207e-13
	2.249090251971339e-05
	3.495113236928479e-04
	1.714548362945875e-04
	4.566128869923195e-01

 152	1.520000000000001e+00
	9.891226737752857e-16
	-1.230072210052425e-15
	-2.755934445493244e-13
	2.409881828310576e-05
	3.509005833401271e-04
	1.749570201280173e-04
	4.566129078241744e-01

 153	1.530000000000001e+00
	1.193658892288828e-15
	-1.288157206242659e-15
	-2.758882420870433e-13
	2.579988807625128e-05
	3.521027927347773e-04
	1.784721639264894e-04