Title: **.subckt gm_id_pmos
Date: Sat Jun 12 17:34:24  2021
Plotname: DC transfer characteristic
Flags: real
No. Variables: 8
No. Points: 181
Variables:
	0	v(v-sweep)	voltage
	1	@m.xm1.msky130_fd_pr__pfet_01v8_lvt[cgb]	capacitance
	2	@m.xm1.msky130_fd_pr__pfet_01v8_lvt[cgd]	capacitance
	3	@m.xm1.msky130_fd_pr__pfet_01v8_lvt[cgs]	capacitance
	4	@m.xm1.msky130_fd_pr__pfet_01v8_lvt[gds]	admittance
	5	@m.xm1.msky130_fd_pr__pfet_01v8_lvt[gm]	admittance
	6	i(@m.xm1.msky130_fd_pr__pfet_01v8_lvt[id])	current
	7	v(@m.xm1.msky130_fd_pr__pfet_01v8_lvt[vth])	voltage
Values:
 0	0.000000000000000e+00
	-4.282881403569398e-14
	-1.336306025180312e-20
	-2.759196983285481e-16
	1.771306966473965e-12
	2.184422910773213e-10
	8.009713112555415e-12
	4.708214608504653e-01

 1	1.000000000000000e-02
	-4.260338334778518e-14
	-1.477172165520505e-20
	-2.971579525519002e-16
	2.326347413367116e-12
	2.866073827499716e-10
	1.051963752950337e-11
	4.708214608504847e-01

 2	2.000000000000000e-02
	-4.238074280712636e-14
	-1.632339860089203e-20
	-3.203276320602442e-16
	3.054415456341049e-12
	3.758806657547277e-10
	1.381205641903210e-11
	4.708214608505149e-01

 3	3.000000000000000e-02
	-4.216077410679581e-14
	-1.803190018381205e-20
	-3.455872693510647e-16
	4.009002629345460e-12
	4.927178157597091e-10
	1.812891703674199e-11
	4.708214608505536e-01

 4	4.000000000000000e-02
	-4.194335788272101e-14
	-1.991232832749981e-20
	-3.731106546784904e-16
	5.259914621369801e-12
	6.455092283178725e-10
	2.378598503404077e-11
	4.708214608506031e-01

 5	5.000000000000000e-02
	-4.172837298658922e-14
	-2.198121067871453e-20
	-4.030892986431018e-16
	6.898136957304456e-12
	8.451405995983304e-10
	3.119488073845581e-11
	4.708214608506676e-01

 6	6.000000000000000e-02
	-4.151569565226305e-14
	-2.425665122812833e-20
	-4.357353286818374e-16
	9.042098194704708e-12
	1.105706752402076e-09
	4.089145897726079e-11
	4.708214608507537e-01

 7	7.000000000000001e-02
	-4.130519854749279e-14
	-2.675850120955883e-20
	-4.712848567571782e-16
	1.184570613520656e-11
	1.445416304887613e-09
	5.357224711964259e-11
	4.708214608508655e-01

 8	8.000000000000000e-02
	-4.109674970408616e-14
	-2.950855305397191e-20
	-5.100018518510089e-16
	1.550862109558968e-11
	1.887732035794456e-09
	7.014106772895289e-11
	4.708214608510096e-01

 9	9.000000000000000e-02
	-4.089021132107709e-14
	-3.253076039103576e-20
	-5.521825470273715e-16
	2.028933384573259e-11
	2.462799561290201e-09
	9.176845927938570e-11
	4.708214608512012e-01

 10	9.999999999999999e-02
	-4.068543843671751e-14
	-3.585148730096262e-20
	-5.981604072232035e-16
	2.652173406133594e-11
	3.209224794914195e-09
	1.199670739738640e-10
	4.708214608514486e-01

 11	1.100000000000000e-01
	-4.048227746620255e-14
	-3.949979022442965e-20
	-6.483116808661095e-16
	3.463598594830295e-11
	4.176267971484432e-09
	1.566868737540200e-10
	4.708214608517715e-01

 12	1.200000000000000e-01
	-4.028056460290219e-14
	-4.350773614150994e-20
	-7.030615560817884e-16
	4.518466629882299e-11
	5.426527867238848e-09
	2.044346543272972e-10
	4.708214608521888e-01

 13	1.300000000000000e-01
	-4.008012408147917e-14
	-4.791076083489742e-20
	-7.628909406664501e-16
	5.887525810427280e-11
	7.039193060600582e-09
	2.664231821737235e-10
	4.708214608527332e-01

 14	1.400000000000000e-01
	-3.988076630169533e-14
	-5.274807126149651e-20
	-8.283438840258819e-16
	7.661021646131033e-11
	9.113936269011003e-09
	3.467559978454195e-10
	4.708214608534389e-01

 15	1.500000000000000e-01
	-3.968228581200081e-14
	-5.806309627177710e-20
	-9.000356586555455e-16
	9.953591316913410e-11
	1.177552157231080e-08
	4.506546731409959e-10
	4.708214608543513e-01

 16	1.600000000000000e-01
	-3.948445915227868e-14
	-6.390399013938422e-20
	-9.786615181028595e-16
	1.291017953841300e-10
	1.517918164254103e-08
	5.847359500264001e-10
	4.708214608555304e-01

 17	1.700000000000000e-01
	-3.928704255547967e-14
	-7.032419359384732e-20
	-1.065006147318296e-15
	1.671310281089312e-10
	1.951680281395006e-08
	7.573466691081785e-10
	4.708214608570452e-01

 18	1.800000000000000e-01
	-3.908976950842452e-14
	-7.738305728467016e-20
	-1.159953819488386e-15
	2.159036905365202e-10
	2.502393153470241e-08
	9.789646552211030e-10
	4.708214608589913e-01

 19	1.900000000000000e-01
	-3.889234817287219e-14
	-8.514653284244292e-20
	-1.264499270499158e-15
	2.782532205731301e-10
	3.198759070259792e-08
	1.262673735875008e-09
	4.708214608614820e-01

 20	2.000000000000000e-01
	-3.869445866910405e-14
	-9.368793693658898e-20
	-1.379759297774149e-15
	3.576762128055673e-10
	4.075487642444769e-08
	1.624720853297483e-09
	4.708214608646621e-01

 21	2.100000000000000e-01
	-3.849575022586213e-14
	-1.030887939540346e-19
	-1.506985084011167e-15
	4.584548494989104e-10
	5.174230668783739e-08
	2.085162919243987e-09
	4.708214608687052e-01

 22	2.200000000000001e-01
	-3.829583820258453e-14
	-1.134397631302600e-19
	-1.647575237820705e-15
	5.857901854412438e-10
	6.544592857091678e-08
	2.668610916880933e-09
	4.708214608738284e-01

 23	2.300000000000001e-01
	-3.809430099269883e-14
	-1.248416561438407e-19
	-1.803089531713791e-15
	7.459432595463416e-10
	8.245227641746863e-08
	3.405079200633257e-09
	4.708214608802963e-01

 24	2.400000000000001e-01
	-3.789067682052470e-14
	-1.374065513235701e-19
	-1.975263302146269e-15
	9.463796644787427e-10
	1.034504231513425e-07
	4.330949561053884e-09
	4.708214608884264e-01

 25	2.500000000000001e-01
	-3.768446044952778e-14
	-1.512590106942267e-19
	-2.166022454688099e-15
	1.195911920190562e-09
	1.292455841998849e-07
	5.490063076170799e-09
	4.708214608986059e-01

 26	2.600000000000001e-01
	-3.747509982685591e-14
	-1.665374060756729e-19
	-2.377498987433497e-15
	1.504832962168724e-09
	1.607750047523071e-07
	6.934958688296350e-09
	4.708214609112932e-01

 27	2.700000000000001e-01
	-3.726199269904841e-14
	-1.833953603112361e-19
	-2.612046904296309e-15
	1.885033479617784e-09
	1.991271492158714e-07
	8.728286201460888e-09
	4.708214609270426e-01

 28	2.800000000000001e-01
	-3.704448324751434e-14
	-2.020033093832683e-19
	-2.872258332891945e-15
	2.350095900400927e-09
	2.455654541938581e-07
	1.094443286582655e-08
	4.708214609465035e-01

 29	2.900000000000001e-01
	-3.682185881090313e-14
	-2.225501906055359e-19
	-3.160979584690043e-15
	2.915358607168069e-09
	3.015580202731730e-07
	1.367141604322415e-08
	4.708214609704495e-01

 30	3.000000000000001e-01
	-3.659334678599613e-14
	-2.452452611751968e-19
	-3.481326793120422e-15
	3.597945431059514e-09
	3.688145137373478e-07
	1.701310789739740e-08
	4.708214609997963e-01

 31	3.100000000000001e-01
	-3.635811183027665e-14
	-2.703200500111699e-19
	-3.836700633539665e-15
	4.416757388530278e-09
	4.493311499993614e-07
	2.109186903786065e-08
	4.708214610356143e-01

 32	3.200000000000001e-01
	-3.611525352870251e-14
	-2.980304438716033e-19
	-4.230799463437227e-15
	5.392425641683298e-09
	5.454438916168434e-07
	2.605167335948140e-08
	4.708214610791676e-01

 33	3.300000000000001e-01
	-3.586380473475052e-14
	-3.286589060863456e-19
	-4.667630019659131e-15
	6.547226341782236e-09
	6.598889168754957e-07
	3.206180253185191e-08
	4.708214611319460e-01

 34	3.400000000000001e-01
	-3.560273085113226e-14
	-3.625168227067043e-19
	-5.151514572136544e-15
	7.904958974763254e-09
	7.958680506333458e-07
	3.932117253748749e-08
	4.708214611956940e-01

 35	3.500000000000001e-01
	-3.533093037730285e-14
	-3.999469663125751e-19
	-5.687093164957667e-15
	9.490789855145701e-09
	9.571152896944569e-07
	4.806332389280481e-08
	4.708214612724660e-01

 36	3.600000000000002e-01
	-3.504723711626660e-14
	-4.413260619931078e-19
	-6.279319285293808e-15
	1.133106156670518e-08
	1.147958924341808e-06
	5.856206035596137e-08
	4.708214613646590e-01

 37	3.700000000000002e-01
	-3.475042449783475e-14
	-4.870674330338206e-19
	-6.933447005139460e-15
	1.345306777284155e-08
	1.373372207133340e-06
	7.113765805131073e-08
	4.708214614750930e-01

 38	3.800000000000002e-01
	-3.443921253309755e-14
	-5.376236955696492e-19
	-7.655007364793521e-15
	1.588479149683994e-08
	1.639004234971827e-06
	8.616348971603934e-08
	4.708214616070427e-01

 39	3.900000000000002e-01
	-3.411227795694648e-14
	-5.934894619588881e-19
	-8.449771544519117e-15
	1.865460437934112e-08
	1.951181922973223e-06
	1.040728209713458e-07
	4.708214617643145e-01

 40	4.000000000000002e-01
	-3.376826813140558e-14
	-6.552040020883037e-19
	-9.323698245825039e-15
	2.179092515857649e-08
	2.316873942736814e-06
	1.253654434954309e-07
	4.708214619512966e-01

 41	4.100000000000002e-01
	-3.340581925976197e-14
	-7.233538005847954e-19
	-1.028286272931431e-14
	2.532183804632875e-08
	2.743608586811279e-06
	1.506137231062486e-07
	4.708214621730155e-01

 42	4.200000000000002e-01
	-3.302357938635274e-14
	-7.985749365303947e-19
	-1.133336519176309e-14
	2.927467578509593e-08
	3.239339985273841e-06
	1.804675714651844e-07
	4.708214624351785e-01

 43	4.300000000000002e-01
	-3.262023651579591e-14
	-8.815552015172546e-19
	-1.248121667247875e-14
	3.367557755900139e-08
	3.812261081717929e-06
	2.156578130147531e-07
	4.708214627442041e-01

 44	4.400000000000002e-01
	-3.219455196699412e-14
	-9.730358627196948e-19
	-1.373220151346082e-14
	3.854903781713528e-08
	4.470567157665957e-06
	2.569974287160931e-07
	4.708214631072303e-01

 45	4.500000000000002e-01
	-3.174539877462812e-14
	-1.073812971280740e-18
	-1.509171659807709e-14
	4.391746743568255e-08
	5.222180003556596e-06
	3.053802271148323e-07
	4.708214635321056e-01

 46	4.600000000000002e-01
	-3.127180456513083e-14
	-1.184738114028793e-18
	-1.656458916750734e-14
	4.980079242030481e-08
	6.074449222586096e-06
	3.617766265605992e-07
	4.708214640273538e-01

 47	4.700000000000003e-01
	-3.077299787728294e-14
	-1.306718509705343e-18
	-1.815487692763424e-14
	5.621611661892344e-08
	7.033852495982509e-06
	4.272264253561815e-07
	4.708214646021044e-01

 48	4.800000000000003e-01
	-3.024845639512715e-14
	-1.440716360734860e-18
	-1.986565631932385e-14
	6.317747312832063e-08
	8.105719757205697e-06
	5.028286727947105e-07
	4.708214652660099e-01

 49	4.900000000000003e-01
	-2.969795505316220e-14
	-1.587747389042732e-18
	-2.169880707601406e-14
	7.069568419543447e-08
	9.294006191372010e-06
	5.897290062492245e-07
	4.708214660291295e-01

 50	5.000000000000002e-01
	-2.912161151478378e-14
	-1.748878509959101e-18
	-2.365480331533211e-14
	7.877834194466532e-08
	1.060113541153190e-05
	6.891050537389285e-07
	4.708214669018052e-01

 51	5.100000000000002e-01
	-2.851992617848954e-14
	-1.925224631575815e-18
	-2.573252313801648e-14
	8.742991318249273e-08
	1.202792739970838e-05
	8.021506834254283e-07
	4.708214678945208e-01

 52	5.200000000000002e-01
	-2.789381369884621e-14
	-2.117944606936945e-18
	-2.792908974784819e-14
	9.665196209415648e-08
	1.357361686838754e-05
	9.300599839389137e-07
	4.708214690177629e-01

 53	5.300000000000002e-01
	-2.724462307968892e-14
	-2.328236411122421e-18
	-3.023975718915856e-14
	1.064434761333354e-07
	1.523595809658391e-05
	1.074011867857798e-06
	4.708214702818831e-01

 54	5.400000000000003e-01
	-2.657414374581226e-14
	-2.557331661756367e-18
	-3.265785271912749e-14
	1.168012738716907e-07
	1.701140362666493e-05
	1.235156106467264e-06
	4.708214716969803e-01

 55	5.500000000000003e-01
	-2.588459563731855e-14
	-2.806489646212987e-18
	-3.517478550103824e-14
	1.277204696755725e-07
	1.889533779881188e-05
	1.414601443435982e-06
	4.708214732727877e-01

 56	5.600000000000003e-01
	-2.517860227142300e-14
	-3.076991057955501e-18
	-3.778012778524776e-14
	1.391949689906272e-07
	2.088234271842145e-05
	1.613406225239939e-06
	4.708214750186037e-01

 57	5.700000000000003e-01
	-2.445914681400796e-14
	-3.370131674298392e-18
	-4.046177026992861e-14
	1.512179694815566e-07
	2.296647401072902e-05
	1.832571758412329e-06
	4.708214769432157e-01

 58	5.800000000000003e-01
	-2.372951239705967e-14
	-3.687216225273315e-18
	-4.320614829397700e-14
	1.637824467150804e-07
	2.514152615303537e-05
	2.073038387497967e-06
	4.708214790548862e-01

 59	5.900000000000003e-01
	-2.299320908488708e-14
	-4.029552706094421e-18
	-4.599853041507632e-14
	1.768816077525846e-07
	2.740127145359882e-05
	2.335684105754153e-06
	4.708214813613228e-01

 60	6.000000000000003e-01
	-2.225389090280027e-14
	-4.398447373167368e-18
	-4.882335631763918e-14
	1.905093011927626e-07
	2.973966190781594e-05
	2.621325376789596e-06
	4.708214838696955e-01

 61	6.100000000000003e-01
	-2.151526708186708e-14
	-4.795200636407327e-18
	-5.166460739296834e-14
	2.046603772433203e-07
	3.215098833524655e-05
	2.930719763807493e-06
	4.708214865866586e-01

 62	6.200000000000003e-01
	-2.078101205991270e-14
	-5.221104020971811e-18
	-5.450619113534087e-14
	2.193309958494420e-07
	3.462999573708074e-05
	3.264569930563062e-06
	4.708214895183802e-01

 63	6.300000000000003e-01
	-2.005467877453459e-14
	-5.677438322705707e-18
	-5.733231992286935e-14
	2.345188845012926e-07
	3.717195733698996e-05
	3.623528586088583e-06
	4.708214926705949e-01

 64	6.400000000000003e-01
	-1.933961940094533e-14
	-6.165473027744513e-18
	-6.012786581282171e-14
	2.502235499900307e-07
	3.977271215492117e-05
	4.008203982746840e-06
	4.708214960486404e-01

 65	6.500000000000004e-01
	-1.863891698437467e-14
	-6.686467012142711e-18
	-6.287867548779922e-14
	2.664464501178445e-07
	4.242867227962085e-05
	4.419165633076302e-06
	4.708214996575205e-01

 66	6.600000000000004e-01
	-1.795533048663810e-14
	-7.241670486212351e-18
	-6.557183309059949e-14
	2.831911323118975e-07
	4.513680643408305e-05
	4.856949975340983e-06
	4.708215035019461e-01

 67	6.700000000000004e-01
	-1.729125472092886e-14
	-7.832328103862665e-18
	-6.819586293219307e-14
	3.004633464051309e-07
	4.789460619992184e-05
	5.322065782944917e-06
	4.708215075863831e-01

 68	6.800000000000004e-01
	-1.664869560055426e-14
	-8.459683122096613e-18
	-7.074086847414798e-14
	3.182711386977809e-07
	5.070004061196276e-05
	5.814999173525064e-06
	4.708215119151026e-01

 69	6.900000000000004e-01
	-1.602926017459057e-14
	-9.124982471278402e-18
	-7.319860814081775e-14
	3.366249339580473e-07
	5.355150395140222e-05
	6.336218126354733e-06
	4.708215164922142e-01

 70	7.000000000000004e-01
	-1.543416013954043e-14
	-9.829482583112233e-18
	-7.556251206700506e-14
	3.555376113897086e-07
	5.644776060761722e-05
	6.886176460192190e-06
	4.708215213217007e-01

 71	7.100000000000004e-01
	-1.486422694400730e-14
	-1.057445581979593e-17
	-7.782764661376768e-14
	3.750245798906531e-07
	5.938788995114418e-05
	7.465317257713940e-06
	4.708215264074544e-01

 72	7.200000000000004e-01
	-1.431993625610110e-14
	-1.136119735316947e-17
	-7.999063529449661e-14
	3.951038572228737e-07
	6.237123332815453e-05
	8.074075747840701e-06
	4.708215317532968e-01

 73	7.300000000000004e-01
	-1.380143942817908e-14
	-1.219103235504960e-17
	-8.204954566326138e-14
	4.157961570611654e-07
	6.539734458204712e-05
	8.712881674729269e-06
	4.708215373630021e-01

 74	7.400000000000004e-01
	-1.330859963954530e-14
	-1.306532337734988e-17
	-8.400375183116332e-14
	4.371249873126516e-07
	6.846594493944000e-05
	9.382161193305803e-06
	4.708215432403137e-01

 75	7.500000000000004e-01
	-1.284103058321188e-14
	-1.398547782106135e-17
	-8.585378175139521e-14
	4.591167626186120e-07
	7.157688265969675e-05
	1.008233833729520e-05
	4.708215493889544e-01

 76	7.600000000000005e-01
	-1.239813584273746e-14
	-1.495295541498231e-17
	-8.760115743040840e-14
	4.818009335657910e-07
	7.473009752451002e-05
	1.081383610799000e-05
	4.708215558126381e-01

 77	7.700000000000005e-01
	-1.197914743685985e-14
	-1.596927564676298e-17
	-8.924823495930651e-14
	5.052101348457704e-07
	7.792559001858118e-05
	1.157707723156697e-05
	4.708215625150782e-01

 78	7.800000000000005e-01
	-1.158316235673432e-14
	-1.703602510929115e-17
	-9.079804987413116e-14
	5.293803543993244e-07
	8.116339490508794e-05
	1.237248463047636e-05
	4.708215694999876e-01

 79	7.900000000000005e-01
	-1.120917625490615e-14
	-1.815486474392776e-17
	-9.225417197308540e-14
	5.543511254608149e-07
	8.444355881269674e-05
	1.320048165098721e-05
	4.708215767710845e-01

 80	8.000000000000005e-01
	-1.085611374716528e-14
	-1.932753697816156e-17
	-9.362057243537534e-14
	5.801657433652394e-07
	8.776612140891217e-05
	1.406149208489770e-05
	4.708215843320889e-01

 81	8.100000000000005e-01
	-1.052285504663550e-14
	-2.055587276873469e-17
	-9.490150495936180e-14
	6.068715089892870e-07
	9.113109972473664e-05
	1.495594001909627e-05
	4.708215921867278e-01

 82	8.200000000000005e-01
	-1.020825885896755e-14
	-2.184179857221326e-17
	-9.610140169745544e-14
	6.345200007587793e-07
	9.453847520768923e-05
	1.588424954235641e-05
	4.708216003387221e-01

 83	8.300000000000005e-01
	-9.911181628523236e-15
	-2.318734327350531e-17
	-9.722478401931496e-14
	6.631673772621476e-07
	9.798818310627436e-05
	1.684684433463586e-05
	4.708216087917946e-01

 84	8.400000000000005e-01
	-9.630493341599843e-15
	-2.459464510927250e-17
	-9.827618757479115e-14
	6.928747126563060e-07
	1.014801038231373e-04
	1.784414716035297e-05
	4.708216175496567e-01

 85	8.500000000000005e-01
	-9.365090169767968e-15
	-2.606595862778655e-17
	-9.926010073460099e-14
	7.237083672334161e-07
	1.050140559120638e-04
	1.887657928366868e-05
	4.708216266160093e-01

 86	8.600000000000005e-01
	-9.113904280921638e-15
	-2.760366172996130e-17
	-1.001809152353291e-13
	7.557403957301771e-07
	1.085897904327562e-04
	1.994455982075132e-05
	4.708216359945319e-01

 87	8.700000000000006e-01
	-8.875911164434919e-15
	-2.921026283827748e-17
	-1.010428877195477e-13
	7.890489962037850e-07
	1.122069864149323e-04
	2.104850504132794e-05
	4.708216456888800e-01

 88	8.800000000000006e-01
	-8.650134816207072e-15
	-3.088840824149433e-17
	-1.018501108159535e-13
	8.237190025667815e-07
	1.158652472185410e-04
	2.218882762952300e-05
	4.708216557026771e-01

 89	8.900000000000006e-01
	-8.435651114928319e-15
	-3.264088966357973e-17
	-1.026064924251360e-13
	8.598424241669617e-07
	1.195640976090457e-04
	2.336593591201346e-05
	4.708216660395078e-01

 90	9.000000000000006e-01
	-8.231589697281037e-15
	-3.447065210548256e-17
	-1.033157419438522e-13
	8.975190361156265e-07
	1.233029813955154e-04
	2.458023305986714e-05
	4.708216767029160e-01

 91	9.100000000000006e-01
	-8.037134610748364e-15
	-3.638080200836176e-17
	-1.039813622580226e-13
	9.368570244080122e-07
	1.270812595046114e-04
	2.583211626903982e-05
	4.708216876963864e-01

 92	9.200000000000006e-01
	-7.851523991123475e-15
	-3.837461578682769e-17
	-1.046066464489866e-13
	9.779736902420897e-07
	1.308982083855714e-04
	2.712197592334620e-05
	4.708216990233484e-01

 93	9.300000000000006e-01
	-7.674048979811084e-15
	-4.045554878077355e-17
	-1.051946782790104e-13
	1.020996218325668e-06
	1.347530186602276e-04
	2.845019474277184e-05
	4.708217106871632e-01

 94	9.400000000000006e-01
	-7.504052065080869e-15
	-4.262724467455305e-17
	-1.057483356433935e-13
	1.066062514365244e-06
	1.386447939481891e-04
	2.981714691921479e-05
	4.708217226911163e-01

 95	9.500000000000006e-01
	-7.340925002531777e-15
	-4.489354543266692e-17
	-1.062702962928314e-13
	1.113322117352327e-06
	1.425725498108827e-04
	3.122319724111533e-05
	4.708217350384115e-01

 96	9.600000000000006e-01
	-7.184106443731501e-15
	-4.725850180180771e-17
	-1.067630452377870e-13
	1.162937192701029e-06
	1.465352127695015e-04
	3.266870020793117e-05
	4.708217477321622e-01

 97	9.700000000000006e-01
	-7.033079378573014e-15
	-4.972638443009712e-17
	-1.072288833446777e-13
	1.215083612741732e-06
	1.505316193613031e-04
	3.415399913501055e-05
	4.708217607753810e-01

 98	9.800000000000006e-01
	-6.887368476398531e-15
	-5.230169565569535e-17
	-1.076699367209215e-13
	1.269952131535652e-06
	1.545605152064452e-04
	3.567942524910203e-05
	4.708217741709787e-01

 99	9.900000000000007e-01
	-6.746537393292052e-15
	-5.498918201865017e-17
	-1.080881665622053e-13
	1.327749661438003e-06
	1.586205540638614e-04
	3.724529677449574e-05
	4.708217879217496e-01

 100	1.000000000000001e+00
	-6.610186097944946e-15
	-5.779384755186960e-17
	-1.084853792011764e-13
	1.388700659295591e-06
	1.627102968597934e-04
	3.885191800959812e-05
	4.708218020303657e-01

 101	1.010000000000001e+00
	-6.477948255925970e-15
	-6.072096790958469e-17
	-1.088632361528087e-13
	1.453048630609083e-06
	1.668282106767243e-04
	4.049957839360572e-05
	4.708218164993672e-01

 102	1.020000000000001e+00
	-6.349488701765900e-15
	-6.377610539441986e-17
	-1.092232639988692e-13
	1.521057760408576e-06
	1.709726676937296e-04
	4.218855156283063e-05
	4.708218313311587e-01

 103	1.030000000000001e+00
	-6.224501019738967e-15
	-6.696512494741798e-17
	-1.095668639931631e-13
	1.593014679967012e-06
	1.751419440719067e-04
	4.391909439616169e-05
	4.708218465279969e-01

 104	1.040000000000001e+00
	-6.102705247322970e-15
	-7.029421116894811e-17
	-1.098953213015431e-13
	1.669230378792367e-06
	1.793342187806222e-04
	4.569144604908888e-05
	4.708218620919780e-01

 105	1.050000000000001e+00
	-5.983845709814757e-15
	-7.376988644241152e-17
	-1.102098138169702e-13
	1.750042271570880e-06
	1.835475723619928e-04
	4.750582697568068e-05
	4.708218780250422e-01

 106	1.060000000000001e+00
	-5.867688990237358e-15
	-7.739903023708092e-17
	-1.105114205110841e-13
	1.835816429854014e-06
	1.877799856324275e-04
	4.936243793789724e-05
	4.708218943289500e-01

 107	1.070000000000001e+00
	-5.754022035320644e-15
	-8.118889967123373e-17
	-1.108011293005595e-13
	1.926949988253501e-06
	1.920293383212219e-04
	5.126145900160171e-05
	4.708219110052836e-01

 108	1.080000000000001e+00
	-5.642650395780179e-15
	-8.514715142200753e-17
	-1.110798444197178e-13
	2.023873734694438e-06
	1.962934076473218e-04
	5.320304851865004e-05
	4.708219280554320e-01

 109	1.090000000000001e+00
	-5.533396597229953e-15
	-8.928186507412702e-17
	-1.113483933010243e-13
	2.127054893824571e-06
	2.005698668364441e-04
	5.518734209444682e-05
	4.708219454805895e-01

 110	1.100000000000001e+00
	-5.426098636701139e-15
	-9.360156800586812e-17
	-1.116075329727950e-13
	2.237000111932952e-06
	2.048562835819407e-04
	5.721445154039187e-05
	4.708219632817349e-01

 111	1.110000000000001e+00
	-5.320608598811755e-15
	-9.811526191725344e-17
	-1.118579559890841e-13
	2.354258650624114e-06
	2.091501184541284e-04
	5.928446381067080e-05
	4.708219814596298e-01

 112	1.120000000000001e+00
	-5.216791385036399e-15
	-1.028324511127120e-16
	-1.121002959107594e-13
	2.479425794951809e-06
	2.134487232644392e-04
	6.139743992290932e-05
	4.708220000148164e-01

 113	1.130000000000001e+00
	-5.114523549199096e-15
	-1.077631726581443e-16
	-1.123351323594771e-13
	2.613146479647683e-06
	2.177493393927239e-04
	6.355341386227970e-05
	4.708220189475872e-01

 114	1.140000000000001e+00
	-5.013692232192574e-15
	-1.129180285405791e-16
	-1.125629956679475e-13
	2.756119134386413e-06
	2.220490960884707e-04
	6.575239146873665e-05
	4.708220382579941e-01

 115	1.150000000000001e+00
	-4.914194188958216e-15
	-1.183082199674944e-16
	-1.127843711507469e-13
	2.909099745604023e-06
	2.263450087597094e-04
	6.799434930719400e-05
	4.708220579458345e-01

 116	1.160000000000001e+00
	-4.815934900911010e-15
	-1.239455839523334e-16
	-1.129997030201720e-13
	3.072906128104128e-06
	2.306339772670190e-04
	7.027923352060216e-05
	4.708220780106330e-01

 117	1.170000000000001e+00
	-4.718827767229337e-15
	-1.298426323427873e-16
	-1.132093979713880e-13
	3.248422394423326e-06
	2.349127842444737e-04
	7.260695866607577e-05
	4.708220984516417e-01

 118	1.180000000000001e+00
	-4.622793368716533e-15
	-1.360125934592210e-16
	-1.134138284605374e-13
	3.436603603545512e-06
	2.391780934746741e-04
	7.497740653448268e-05
	4.708221192678191e-01

 119	1.190000000000001e+00
	-4.527758798273638e-15
	-1.424694565219782e-16
	-1.136133356986265e-13
	3.638480562918645e-06
	2.434264483512483e-04
	7.739042495418529e-05
	4.708221404578302e-01

 120	1.200000000000001e+00
	-4.433657052371331e-15
	-1.492280190584688e-16
	-1.138082323829838e-13
	3.855164748706410e-06
	2.476542704695446e-04
	7.984582658001295e-05
	4.708221620200297e-01

 121	1.210000000000001e+00
	-4.340426478271545e-15
	-1.563039374937402e-16
	-1.139988051869460e-13
	4.087853298678769e-06
	2.518578583946975e-04
	8.234338766898518e-05
	4.708221839524537e-01

 122	1.220000000000001e+00
	-4.248010272110967e-15
	-1.637137811418574e-16
	-1.141853170272237e-13
	4.337834020017512e-06
	2.560333866658497e-04
	8.488284684484059e-05
	4.708222062528056e-01

 123	1.230000000000001e+00
	-4.156356023315072e-15
	-1.714750898297080e-16
	-1.143680091271618e-13
	4.606490340524606e-06
	2.601769051061602e-04
	8.746390385407602e-05
	4.708222289184497e-01

 124	1.240000000000001e+00
	-4.065415301155843e-15
	-1.796064353999687e-16
	-1.145471028928779e-13
	4.895306116271630e-06
	2.642843385201566e-04
	9.008621831694711e-05
	4.708222519463974e-01

 125	1.250000000000001e+00
	-3.975143279598050e-15
	-1.881274873557978e-16
	-1.147228016180464e-13
	5.205870191686743e-06
	2.683514868729769e-04
	9.274940847777071e-05
	4.708222753332931e-01

 126	1.260000000000001e+00
	-3.885498396893553e-15
	-1.970590829264052e-16
	-1.148952920319150e-13
	5.539880589618255e-06
	2.723740260598407e-04
	9.545304995987102e-05
	4.708222990754122e-01

 127	1.270000000000001e+00
	-3.796442046678191e-15
	-2.064233018499831e-16
	-1.150647457040123e-13
	5.899148189333301e-06
	2.763475093883882e-04
	9.819667453167640e-05
	4.708223231686439e-01

 128	1.280000000000001e+00
	-3.707938297604803e-15
	-2.162435461884696e-16
	-1.152313203179256e-13
	6.285599730164427e-06
	2.802673699109286e-04
	1.009797688917732e-04
	4.708223476084790e-01

 129	1.290000000000001e+00
	-3.619953638804229e-15
	-2.265446255072308e-16
	-1.153951608255081e-13
	6.701279958235260e-06
	2.841289237574603e-04
	1.038017734821457e-04
	4.708223723900044e-01

 130	1.300000000000001e+00
	-3.532456748706192e-15
	-2.373528477719530e-16
	-1.155564004919184e-13
	7.148352714233305e-06
	2.879273746329680e-04
	1.066620813404348e-04
	4.708223975078893e-01

 131	1.310000000000001e+00
	-3.445418284974429e-15
	-2.486961163346470e-16
	-1.157151618409985e-13
	7.629100742612455e-06
	2.916578196528481e-04
	1.095600370037055e-04
	4.708224229563776e-01

 132	1.320000000000001e+00
	-3.358810693515463e-15
	-2.606040334006456e-16
	-1.158715575096579e-13
	8.145923988224858e-06
	2.953152566974370e-04
	1.124949354780092e-04
	4.708224487292811e-01

 133	1.330000000000001e+00
	-3.272608034707184e-15
	-2.731080103885215e-16
	-1.160256910191626e-13
	8.701336136733299e-06
	2.988945934691562e-04
	1.154660212898584e-04
	4.708224748199611e-01

 134	1.340000000000001e+00
	-3.186785825169915e-15
	-2.862413856149244e-16
	-1.161776574704969e-13
	9.297959151982531e-06
	3.023906584323384e-04
	1.184724876375298e-04
	4.708225012213348e-01

 135	1.350000000000001e+00
	-3.101320893555719e-15
	-3.000395497560424e-16
	-1.163275441703173e-13
	9.938515568708076e-06
	3.057982138050056e-04
	1.215134756618938e-04
	4.708225279258609e-01

 136	1.360000000000001e+00
	-3.016191248981649e-15
	-3.145400795563645e-16
	-1.164754311933919e-13
	1.062581831445959e-05
	3.091119707521785e-04
	1.245880738580557e-04
	4.708225549255327e-01

 137	1.370000000000001e+00
	-2.931375960862047e-15
	-3.297828802735286e-16
	-1.166213918868617e-13
	1.136275786228597e-05
	3.123266069004150e-04
	1.276953176504458e-04
	4.708225822118813e-01

 138	1.380000000000001e+00
	-2.846855049016661e-15
	-3.458103373644172e-16
	-1.167654933211445e-13
	1.215228655719307e-05
	3.154367862522188e-04
	1.308341891550125e-04
	4.708226097759685e-01

 139	1.390000000000001e+00
	-2.762609383042062e-15
	-3.626674779321350e-16
	-1.169077966918220e-13
	1.299740001581444e-05
	3.184371815259516e-04
	1.340036171526847e-04
	4.708226376083872e-01

 140	1.400000000000001e+00
	-2.678620590035131e-15
	-3.804021424650581e-16
	-1.170483576764206e-13
	1.390111557065489e-05
	3.213224988820706e-04
	1.372024772982307e-04
	4.708226656992622e-01

 141	1.410000000000001e+00
	-2.594870969848807e-15
	-3.990651674072961e-16
	-1.171872267495947e-13
	1.486644781727875e-05
	3.240875049204546e-04
	1.404295925878586e-04
	4.708226940382579e-01

 142	1.420000000000001e+00
	-2.511343417145126e-15
	-4.187105791034622e-16
	-1.173244494598623e-13
	1.589638142343868e-05
	3.267270557481370e-04
	1.436837341073502e-04
	4.708227226145847e-01

 143	1.430000000000001e+00
	-2.428021349588360e-15
	-4.393957996585914e-16
	-1.174600666707083e-13
	1.699384147058661e-05
	3.292361278244286e-04
	1.469636220800375e-04
	4.708227514170020e-01

 144	1.440000000000001e+00
	-2.344888641591981e-15
	-4.611818652452899e-16
	-1.175941147685714e-13
	1.816166171636850e-05
	3.316098501951180e-04
	1.502679272305388e-04
	4.708227804338372e-01

 145	1.450000000000001e+00
	-2.261929563098615e-15
	-4.841336573728701e-16
	-1.177266258399555e-13
	1.940255128611185e-05
	3.338435376337450e-04
	1.535952724758105e-04
	4.708228096529977e-01

 146	1.460000000000001e+00
	-2.179128722933189e-15
	-5.083201476060432e-16
	-1.178576278196622e-13
	2.071906041540045e-05
	3.359327241214558e-04
	1.569442349498069e-04
	4.708228390619887e-01

 147	1.470000000000001e+00
	-2.096471016325808e-15
	-5.338146561814508e-16
	-1.179871446119174e-13
	2.211354596719894e-05
	3.378731960236256e-04
	1.603133483619854e-04
	4.708228686479335e-01

 148	1.480000000000001e+00
	-2.013941576253399e-15
	-5.606951249168315e-16
	-1.181151961859652e-13
	2.358813752797826e-05
	3.396610242672079e-04
	1.637011056831702e-04
	4.708228983975970e-01

 149	1.490000000000001e+00
	-1.931525728299783e-15
	-5.890444047373379e-16
	-1.182417986475284e-13
	2.514470494056693e-05
	3.412925947933030e-04
	1.671059621451777e-04
	4.708229282974152e-01

 150	1.500000000000001e+00
	-1.849208948778539e-15
	-6.189505580536900e-16
	-1.183669642873820e-13
	2.678482815071148e-05
	3.427646365590103e-04
	1.705263385333083e-04
	4.708229583335214e-01

 151	1.510000000000001e+00
	-1.766976825910777e-15
	-6.505071761141135e-16
	-1.184907016081496e-13
	2.850977022503998e-05
	3.440742463942828e-04
	1.739606247436818e-04
	4.708229884917740e-01

 152	1.520000000000001e+00
	-1.684815023890542e-15
	-6.838137113128767e-16
	-1.186130153303278e-13
	3.032045433813502e-05
	3.452189100839672e-04
	1.774071835707598e-04
	4.708230187577963e-01

 153	1.530000000000001e+00
	-1.602709249713325e-15
	-7.189758242690469e-16
	-1.187339063784526e-13
	3.221744542635523e-05
	3.461965191410364e-04