Title: **.subckt gm_id_pmos
Date: Sat Jun 12 17:33:43  2021
Plotname: DC transfer characteristic
Flags: real
No. Variables: 8
No. Points: 181
Variables:
	0	v(v-sweep)	voltage
	1	@m.xm1.msky130_fd_pr__pfet_01v8_lvt[cgb]	capacitance
	2	@m.xm1.msky130_fd_pr__pfet_01v8_lvt[cgd]	capacitance
	3	@m.xm1.msky130_fd_pr__pfet_01v8_lvt[cgs]	capacitance
	4	@m.xm1.msky130_fd_pr__pfet_01v8_lvt[gds]	admittance
	5	@m.xm1.msky130_fd_pr__pfet_01v8_lvt[gm]	admittance
	6	i(@m.xm1.msky130_fd_pr__pfet_01v8_lvt[id])	current
	7	v(@m.xm1.msky130_fd_pr__pfet_01v8_lvt[vth])	voltage
Values:
 0	0.000000000000000e+00
	-1.068972572390222e-14
	-3.875765732142908e-21
	-8.943751304229393e-17
	8.814467626325418e-12
	5.486534535915693e-10
	2.017885394606450e-11
	4.438652678499522e-01

 1	1.000000000000000e-02
	-1.063428606497758e-14
	-4.280366976915889e-21
	-9.661740603767400e-17
	1.156621599997572e-11
	7.189140609101973e-10
	2.647869362087393e-11
	4.438652678500473e-01

 2	2.000000000000000e-02
	-1.057946228823072e-14
	-4.725559864132851e-21
	-1.044405780354962e-16
	1.517066821649541e-11
	9.414296853316193e-10
	3.473092211282673e-11
	4.438652678502072e-01

 3	3.000000000000000e-02
	-1.052522226934637e-14
	-5.215242876094325e-21
	-1.129625190424922e-16
	1.988890334813766e-11
	1.231952796708539e-09
	4.553347018188868e-11
	4.438652678503996e-01

 4	4.000000000000000e-02
	-1.047153295548194e-14
	-5.753689057214088e-21
	-1.222448882121715e-16
	2.606038488067875e-11
	1.610846346615163e-09
	5.966389557350104e-11
	4.438652678506483e-01

 5	5.000000000000000e-02
	-1.041836009040572e-14
	-6.345587256698586e-21
	-1.323565036441148e-16
	3.412573938762239e-11
	2.104367413640150e-09
	7.813166021654849e-11
	4.438652678509747e-01

 6	6.000000000000000e-02
	-1.036566790622294e-14
	-6.996088912896618e-21
	-1.433744714151595e-16
	4.465579301761905e-11
	2.746277622567223e-09
	1.022448237843596e-10
	4.438652678514005e-01

 7	7.000000000000001e-02
	-1.031341878046916e-14
	-7.710861069906629e-21
	-1.553854610662626e-16
	5.838841457427567e-11
	3.579849636413990e-09
	1.336947603367643e-10
	4.438652678519538e-01

 8	8.000000000000000e-02
	-1.026157285765561e-14
	-8.496146361574998e-21
	-1.684871339136149e-16
	7.627501825801780e-11
	4.660347556213552e-09
	1.746632413606660e-10
	4.438652678526779e-01

 9	9.000000000000000e-02
	-1.021008763459789e-14
	-9.358830741684870e-21
	-1.827897298737823e-16
	9.953890642858110e-11
	6.058065846179929e-09
	2.279570428259362e-10
	4.438652678536184e-01

 10	9.999999999999999e-02
	-1.015891750904026e-14
	-1.030651978250715e-20
	-1.984178180089365e-16
	1.297479657427360e-10
	7.862014900735379e-09
	2.971761010232929e-10
	4.438652678548395e-01

 11	1.100000000000000e-01
	-1.010801329121781e-14
	-1.134762440767946e-20
	-2.155122156845000e-16
	1.689045404667977e-10
	1.018433968026857e-08
	3.869221198636938e-10
	4.438652678564217e-01

 12	1.200000000000000e-01
	-1.005732167808787e-14
	-1.249145696999120e-20
	-2.342320810274214e-16
	2.195555525076238e-10
	1.316554883040656e-08
	5.030553585270666e-10
	4.438652678584710e-01

 13	1.300000000000000e-01
	-1.000678469004258e-14
	-1.374833863038419e-20
	-2.547571831888763e-16
	2.849260603149086e-10
	1.698061333125636e-08
	6.530080191758031e-10
	4.438652678611167e-01

 14	1.400000000000000e-01
	-9.956339070009522e-15
	-1.512971904113760e-20
	-2.772903546485098e-16
	3.690793726877326e-10
	2.184596464899230e-08
	8.461631086931713e-10
	4.438652678645255e-01

 15	1.500000000000000e-01
	-9.905915644987831e-15
	-1.664830938336424e-20
	-3.020601293444653e-16
	4.771064679839320e-10
	2.802738280007166e-08
	1.094307758348377e-09
	4.438652678689037e-01

 16	1.600000000000000e-01
	-9.855438650274166e-15
	-1.831822985566588e-20
	-3.293235696774732e-16
	6.153467152761059e-10
	3.584871762872053e-08
	1.412169657947920e-09
	4.438652678745119e-01

 17	1.700000000000000e-01
	-9.804825016929609e-15
	-2.015517275594635e-20
	-3.593692843296042e-16
	7.916406575925848e-10
	4.570133887244528e-08
	1.818044451765012e-09
	4.438652678816730e-01

 18	1.800000000000000e-01
	-9.753983623443626e-15
	-2.217658234032979e-20
	-3.925206372655125e-16
	1.015613830486850e-09
	5.805417418783462e-08
	2.334520701447554e-09
	4.438652678907852e-01

 19	1.900000000000000e-01
	-9.702814513091371e-15
	-2.440185267999008e-20
	-4.291391461311262e-16
	1.298988238111537e-09
	7.346418634482009e-08
	2.989307540988016e-09
	4.438652679023377e-01

 20	2.000000000000000e-01
	-9.651208079195569e-15
	-2.685254476600162e-20
	-4.696280653590185e-16
	1.655915266825647e-09
	9.258718209181094e-08
	3.816168817290752e-09
	4.438652679169260e-01

 21	2.100000000000000e-01
	-9.599044221457768e-15
	-2.955262413080523e-20
	-5.144361453645402e-16
	2.103320672221362e-09
	1.161889564009509e-07
	4.855966925224798e-09
	4.438652679352734e-01

 22	2.200000000000001e-01
	-9.546191477814621e-15
	-3.252872025825519e-20
	-5.640615538700542e-16
	2.661249148940549e-09
	1.451569708016103e-07
	6.157820485902599e-09
	4.438652679582419e-01

 23	2.300000000000001e-01
	-9.492506138045167e-15
	-3.581040903631028e-20
	-6.190559380476791e-16
	3.353193319697203e-09
	1.805130416673628e-07
	7.780383327831559e-09
	4.438652679868698e-01

 24	2.400000000000001e-01
	-9.437831347796662e-15
	-3.943051945907385e-20
	-6.800285960496571e-16
	4.206390257617422e-09
	2.234278476290133e-07
	9.793258627572732e-09
	4.438652680223852e-01

 25	2.500000000000001e-01
	-9.381996215046719e-15
	-4.342546569649337e-20
	-7.476507126170951e-16
	5.252068342674884e-09
	2.752383987347375e-07
	1.227857185675890e-08
	4.438652680662357e-01

 26	2.600000000000001e-01
	-9.324814935557761e-15
	-4.783560550581697e-20
	-8.226595946677522e-16
	6.525628636033821e-09
	3.374698590637019e-07
	1.533273896533093e-08
	4.438652681201222e-01

 27	2.700000000000001e-01
	-9.266085959902934e-15
	-5.270562573941938e-20
	-9.058628177909903e-16
	8.066748019591597e-09
	4.118631775387514e-07
	1.906848066147437e-08
	4.438652681860346e-01

 28	2.800000000000001e-01
	-9.205591232437152e-15
	-5.808495538524279e-20
	-9.981421621522276e-16
	9.919395688603380e-09
	5.004097604626511e-07
	2.361714736221916e-08
	4.438652682662901e-01

 29	2.900000000000001e-01
	-9.143095542387807e-15
	-6.402820613067337e-20
	-1.100457175315434e-15
	1.213175942590313e-08
	6.053938442665605e-07
	2.913142916046934e-08
	4.438652683635818e-01

 30	3.000000000000001e-01
	-9.078346039174715e-15
	-7.059563983646476e-20
	-1.213848149183114e-15
	1.475608241646219e-08
	7.294422789467239e-07
	3.578852730189388e-08
	4.438652684810387e-01

 31	3.100000000000001e-01
	-9.011071978095963e-15
	-7.785366151032647e-20
	-1.339438238510543e-15
	1.784841419064296e-08
	8.755801533545896e-07
	4.379385461608901e-08
	4.438652686222815e-01

 32	3.200000000000001e-01
	-8.940984778347394e-15
	-8.587533534598277e-20
	-1.478434380094092e-15
	2.146827994813637e-08
	1.047289181320625e-06
	5.338530923765430e-08
	4.438652687915121e-01

 33	3.300000000000001e-01
	-8.867778492366466e-15
	-9.474092011252717e-20
	-1.632126596881031e-15
	2.567827093070047e-08
	1.248564162906693e-06
	6.483812712998765e-08
	4.438652689935810e-01

 34	3.400000000000001e-01
	-8.791130802678624e-15
	-1.045384186175906e-19
	-1.801885193685829e-15
	3.054355529977836e-08
	1.483961304107078e-06
	7.847026427698425e-08
	4.438652692341031e-01

 35	3.500000000000001e-01
	-8.710704678263068e-15
	-1.153641341172717e-19
	-1.989155276782356e-15
	3.613130537471572e-08
	1.758630905095319e-06
	9.464819057860804e-08
	4.438652695195422e-01

 36	3.600000000000002e-01
	-8.626150834871359e-15
	-1.273232244163180e-19
	-2.195447966596181e-15
	4.251003468712107e-08
	2.078326116138153e-06
	1.137928980549943e-07
	4.438652698573269e-01

 37	3.700000000000002e-01
	-8.537111150086508e-15
	-1.405302420326155e-19
	-2.422327631855740e-15
	4.974883865219403e-08
	2.449379342076405e-06
	1.363858416839956e-07
	4.438652702559507e-01

 38	3.800000000000002e-01
	-8.443223181026677e-15
	-1.551096462647744e-19
	-2.671394468155545e-15
	5.791653683954178e-08
	2.878638699618325e-06
	1.629744502348532e-07
	4.438652707250717e-01

 39	3.900000000000002e-01
	-8.344125916930706e-15
	-1.711962704186973e-19
	-2.944261789221356e-15
	6.708072315606102e-08
	3.373358926367731e-06
	1.941767774222072e-07
	4.438652712755969e-01

 40	4.000000000000002e-01
	-8.239466866784650e-15
	-1.889357249849272e-19
	-3.242527511416423e-15
	7.730674209886465e-08
	3.941044443401298e-06
	2.306848231038496e-07
	4.438652719197348e-01

 41	4.100000000000002e-01
	-8.128910530413377e-15
	-2.084847154317463e-19
	-3.567739506452646e-15
	8.865662305029498e-08
	4.589246829593322e-06
	2.732660530936884e-07
	4.438652726710257e-01

 42	4.200000000000002e-01
	-8.012148227854758e-15
	-2.300112517540928e-19
	-3.921354785598575e-15
	1.011880181351832e-07
	5.325324437433757e-06
	3.227626955659183e-07
	4.438652735443321e-01

 43	4.300000000000002e-01
	-7.888909165947263e-15
	-2.536947262964360e-19
	-4.304692865807811e-15
	1.149531999095096e-07
	6.156177604691358e-06
	3.800884980930997e-07
	4.438652745557730e-01

 44	4.400000000000002e-01
	-7.758972505144544e-15
	-2.797258369618879e-19
	-4.718884148490824e-15
	1.299981807564893e-07
	7.087977961483844e-06
	4.462227901308758e-07
	4.438652757226278e-01

 45	4.500000000000002e-01
	-7.622180059273422e-15
	-3.083063350262951e-19
	-5.164814695476430e-15
	1.463620146765928e-07
	8.125913659695058e-06
	5.222018992429635e-07
	4.438652770631832e-01

 46	4.600000000000002e-01
	-7.478449125780471e-15
	-3.396485806282817e-19
	-5.643069377919415e-15
	1.640763336027211e-07
	9.273973067113733e-06
	6.091081936663077e-07
	4.438652785965334e-01

 47	4.700000000000003e-01
	-7.327784817258088e-15
	-3.739748947318570e-19
	-6.153875949469299e-15
	1.831651551563133e-07
	1.053478708964526e-05
	7.080572399743787e-07
	4.438652803423627e-01

 48	4.800000000000003e-01
	-7.170291162968023e-15
	-4.115167039276777e-19
	-6.697053087522232e-15
	2.036449787800576e-07
	1.190954493127574e-05
	8.201837417173398e-07
	4.438652823206925e-01

 49	4.900000000000003e-01
	-7.006180189287152e-15
	-4.525134836298378e-19
	-7.271965780184994e-15
	2.255251651664500e-07
	1.339799052926686e-05
	9.466270365394973e-07
	4.438652845516240e-01

 50	5.000000000000002e-01
	-6.835778186980599e-15
	-4.972115155993245e-19
	-7.877491537499777e-15
	2.488085728644936e-07
	1.499849835244061e-05
	1.088516959121100e-06
	4.438652870550894e-01

 51	5.100000000000002e-01
	-6.659528443406459e-15
	-5.458624866384218e-19
	-8.512000713057367e-15
	2.734924085985282e-07
	1.670821915356260e-05
	1.246960822727517e-06
	4.438652898506298e-01

 52	5.200000000000002e-01
	-6.477989864606180e-15
	-5.987219659377355e-19
	-9.173353702657560e-15
	2.995692360880839e-07
	1.852327989789499e-05
	1.423032144341347e-06
	4.438652929571840e-01

 53	5.300000000000002e-01
	-6.291831131800813e-15
	-6.560478080095439e-19
	-9.858916944274548e-15
	3.270280828678683e-07
	2.043901828794926e-05
	1.617761559221224e-06
	4.438652963929359e-01

 54	5.400000000000003e-01
	-6.101820314714062e-15
	-7.180985355017555e-19
	-1.056559852653591e-14
	3.558555855550817e-07
	2.245023133458609e-05
	1.832130167764310e-06
	4.438653001751985e-01

 55	5.500000000000003e-01
	-5.908810176241889e-15
	-7.851317606659347e-19
	-1.128990291281377e-14
	3.860371201223654e-07
	2.455141900579579e-05
	2.067065358065814e-06
	4.438653043203285e-01

 56	5.600000000000003e-01
	-5.713719717976071e-15
	-8.574027052876831e-19
	-1.202800293086516e-14
	4.175578734218039e-07
	2.673700744573558e-05
	2.323438973962875e-06
	4.438653088437150e-01

 57	5.700000000000003e-01
	-5.517512799706696e-15
	-9.351628762300318e-19
	-1.277582590782290e-14
	4.504038237366545e-07
	2.900154075233608e-05
	2.602067565253392e-06
	4.438653137597614e-01

 58	5.800000000000003e-01
	-5.321174886202740e-15
	-1.018658947497654e-18
	-1.352914978822661e-14
	4.845626099388067e-07
	3.133983501507140e-05
	2.903714370347653e-06
	4.438653190819343e-01

 59	5.900000000000003e-01
	-5.125689106422255e-15
	-1.108131890372567e-18
	-1.428370437495224e-14
	5.200242796844956e-07
	3.374709260026532e-05
	3.229092640623831e-06
	4.438653248228205e-01

 60	6.000000000000003e-01
	-4.932012840090891e-15
	-1.203816381467664e-18
	-1.503527255256817e-14
	5.567819162007115e-07
	3.621897812163975e-05
	3.578869913683654e-06
	4.438653309941940e-01

 61	6.100000000000003e-01
	-4.741055973636432e-15
	-1.305940505469882e-18
	-1.577978650952273e-14
	5.948321502289559e-07
	3.875165997605150e-05
	3.953672870151487e-06
	4.438653376071142e-01

 62	6.200000000000003e-01
	-4.553661803859032e-15
	-1.414725755965798e-18
	-1.651341453454278e-14
	6.341755685657724e-07
	4.134182277432398e-05
	4.354092455493559e-06
	4.438653446720066e-01

 63	6.300000000000003e-01
	-4.370591335803366e-15
	-1.530387325077194e-18
	-1.723263484194330e-14
	6.748170335684296e-07
	4.398665659416062e-05
	4.780689005249753e-06
	4.438653521987588e-01

 64	6.400000000000003e-01
	-4.192511449695925e-15
	-1.653134661559608e-18
	-1.793429396713047e-14
	7.167659293099983e-07
	4.668382892610504e-05
	5.233997171517289e-06
	4.438653601968021e-01

 65	6.500000000000004e-01
	-4.019987130788753e-15
	-1.783172268170870e-18
	-1.861564844182723e-14
	7.600363501490713e-07
	4.943144468461312e-05
	5.714530505024782e-06
	4.438653686752006e-01

 66	6.600000000000004e-01
	-3.853477693103058e-15
	-1.920700702873012e-18
	-1.927438958899252e-14
	8.046472466948192e-07
	5.222799890294549e-05
	6.222785597235169e-06
	4.438653776427120e-01

 67	6.700000000000004e-01
	-3.693336705045595e-15
	-2.065917744882108e-18
	-1.990865227159115e-14
	8.506225428194982e-07
	5.507232587282778e-05
	6.759245728845312e-06
	4.438653871078659e-01

 68	6.800000000000004e-01
	-3.539815155533875e-15
	-2.219019685591111e-18
	-2.051700921928525e-14
	8.979912357590421e-07
	5.796354763541113e-05
	7.324384004356197e-06
	4.438653970790078e-01

 69	6.900000000000004e-01
	-3.393067289360433e-15
	-2.380202705623090e-18
	-2.109845310816145e-14
	9.467874896415411e-07
	6.090102394754420e-05
	7.918665977456102e-06
	4.438654075643539e-01

 70	7.000000000000004e-01
	-3.253158488558442e-15
	-2.549664302287745e-18
	-2.165236887739494e-14
	9.970507311296893e-07
	6.388430517373557e-05
	8.542551789734375e-06
	4.438654185720228e-01

 71	7.100000000000004e-01
	-3.120074575512498e-15
	-2.727604736006530e-18
	-2.217849885478642e-14
	1.048825754341421e-06
	6.691308900293623e-05
	9.196497856887058e-06
	4.438654301100642e-01

 72	7.200000000000004e-01
	-2.993731953051573e-15
	-2.914228469345813e-18
	-2.267690316872104e-14
	1.102162840870255e-06
	6.998718145832647e-05
	9.880958143314843e-06
	4.438654421864911e-01

 73	7.300000000000004e-01
	-2.873988064895036e-15
	-3.109745577708948e-18
	-2.314791769406107e-14
	1.157117899582448e-06
	7.310646234630080e-05
	1.059638506900299e-05
	4.438654548092828e-01

 74	7.400000000000004e-01
	-2.760651744956875e-15
	-3.314373116103990e-18
	-2.359211146176105e-14
	1.213752629920487e-06
	7.627085506189248e-05
	1.134323009281707e-05
	4.438654679864075e-01

 75	7.500000000000004e-01
	-2.653493115904117e-15
	-3.528336431453107e-18
	-2.401024510038474e-14
	1.272134711680681e-06
	7.948030051480750e-05
	1.212194401470169e-05
	4.438654817258169e-01

 76	7.600000000000005e-01
	-2.552252787853363e-15
	-3.751870414431850e-18
	-2.440323150841667e-14
	1.332338023635774e-06
	8.273473484657302e-05
	1.293297703639710e-05
	4.438654960354554e-01

 77	7.700000000000005e-01
	-2.456650191306920e-15
	-3.985220688722754e-18
	-2.477209960651868e-14
	1.394442892920983e-06
	8.603407056043926e-05
	1.377677861671995e-05
	4.438655109232519e-01

 78	7.800000000000005e-01
	-2.366390950716063e-15
	-4.228644738780236e-18
	-2.511796170684289e-14
	1.458536376769421e-06
	8.937818066926127e-05
	1.465379715356367e-05
	4.438655263971193e-01

 79	7.900000000000005e-01
	-2.281173264632574e-15
	-4.482412979752848e-18
	-2.544198477232305e-14
	1.524712577950404e-06
	9.276688547267984e-05
	1.556447952084432e-05
	4.438655424649411e-01

 80	8.000000000000005e-01
	-2.200693304966556e-15
	-4.746809775127234e-18
	-2.574536562613729e-14
	1.593072995110577e-06
	9.619994159570988e-05
	1.650927048482203e-05
	4.438655591345637e-01

 81	8.100000000000005e-01
	-2.124649682143553e-15
	-5.022134409029234e-18
	-2.602931000908650e-14
	1.663726909127004e-06
	9.967703295048945e-05
	1.748861202069453e-05
	4.438655764137879e-01

 82	8.200000000000005e-01
	-2.052747046336676e-15
	-5.308702021011707e-18
	-2.629501526606502e-14
	1.736791806537542e-06
	1.031977633171142e-04
	1.850294254714562e-05
	4.438655943103467e-01

 83	8.300000000000005e-01
	-1.984698909159020e-15
	-5.606844511667602e-18
	-2.654365636590188e-14
	1.812393841104583e-06
	1.067616502751583e-04
	1.955269609366579e-05
	4.438656128318974e-01

 84	8.400000000000005e-01
	-1.920229777042834e-15
	-5.916911427611630e-18
	-2.677637491466958e-14
	1.890668334582734e-06
	1.103681202526224e-04
	2.063830141295793e-05
	4.438656319860063e-01

 85	8.500000000000005e-01
	-1.859076688733788e-15
	-6.239270834346462e-18
	-2.699427080415658e-14
	1.971760317789819e-06
	1.140165044923245e-04
	2.176018104857620e-05
	4.438656517801274e-01

 86	8.600000000000005e-01
	-1.800990246436402e-15
	-6.574310185340759e-18
	-2.719839613818674e-14
	2.055825113116735e-06
	1.177060357663991e-04
	2.291875036610069e-05
	4.438656722215907e-01

 87	8.700000000000006e-01
	-1.745735224473554e-15
	-6.922437195347387e-18
	-2.738975109426116e-14
	2.143028959647891e-06
	1.214358456972121e-04
	2.411441655459969e-05
	4.438656933175778e-01

 88	8.800000000000006e-01
	-1.693090831939213e-15
	-7.284080725625821e-18
	-2.756928140193393e-14
	2.233549682093925e-06
	1.252049625675163e-04
	2.534757760383687e-05
	4.438657150751136e-01

 89	8.900000000000006e-01
	-1.642850697557558e-15
	-7.659691688346161e-18
	-2.773787714870199e-14
	2.327577404759105e-06
	1.290123095241406e-04
	2.661862126162391e-05
	4.438657375010370e-01

 90	9.000000000000006e-01
	-1.594822636438961e-15
	-8.049743977057000e-18
	-2.789637265611796e-14
	2.425315311768897e-06
	1.328567030980669e-04
	2.792792397484988e-05
	4.438657606019918e-01

 91	9.100000000000006e-01
	-1.548828250080569e-15
	-8.454735429732524e-18
	-2.804554720123028e-14
	2.526980454767775e-06
	1.367368519796841e-04
	2.927584981703687e-05
	4.438657843843997e-01

 92	9.200000000000006e-01
	-1.504702403095596e-15
	-8.875188830571879e-18
	-2.818612638983196e-14
	2.632804609255555e-06
	1.406513560015346e-04
	3.066274940472136e-05
	4.438658088544488e-01

 93	9.300000000000006e-01
	-1.462292612946834e-15
	-9.311652956433638e-18
	-2.831878401739689e-14
	2.743035180659804e-06
	1.445987052923070e-04
	3.208895880454933e-05
	4.438658340180666e-01

 94	9.400000000000006e-01
	-1.421458382503284e-15
	-9.764703673540719e-18
	-2.844414428041954e-14
	2.857936161136284e-06
	1.485772795753943e-04
	3.355479843265460e-05
	4.438658598809060e-01

 95	9.500000000000006e-01
	-1.382070499559985e-15
	-1.023494508989626e-17
	-2.856278422487503e-14
	2.977789137943834e-06
	1.525853475933333e-04
	3.506057194766810e-05
	4.438658864483266e-01

 96	9.600000000000006e-01
	-1.344010322549177e-15
	-1.072301076871499e-17
	-2.867523633961007e-14
	3.102894354049054e-06
	1.566210666460421e-04
	3.660656513855076e-05
	4.438659137253693e-01

 97	9.700000000000006e-01
	-1.307169067481517e-15
	-1.122956500807945e-17
	-2.878199122073881e-14
	3.233571821373210e-06
	1.606824822362352e-04
	3.819304480835066e-05
	4.438659417167403e-01

 98	9.800000000000006e-01
	-1.271447107629136e-15
	-1.175530419200117e-17
	-2.888350024872533e-14
	3.370162486793540e-06
	1.647675278198632e-04
	3.982025765494246e-05
	4.438659704267942e-01

 99	9.900000000000007e-01
	-1.236753294530433e-15
	-1.230095821807112e-17
	-2.898017823300967e-14
	3.513029450644722e-06
	1.688740246630755e-04
	4.148842914980455e-05
	4.438659998595091e-01

 100	1.000000000000001e+00
	-1.203004306487689e-15
	-1.286729200694950e-17
	-2.907240599003131e-14
	3.662559237027439e-06
	1.729996818101762e-04
	4.319776241591764e-05
	4.438660300184656e-01

 101	1.010000000000001e+00
	-1.170124028773467e-15
	-1.345510709904282e-17
	-2.916053282958435e-14
	3.819163114712098e-06
	1.771420961694598e-04
	4.494843710592842e-05
	4.438660609068375e-01

 102	1.020000000000001e+00
	-1.138042968194354e-15
	-1.406524334386750e-17
	-2.924487893185283e-14
	3.983278466817068e-06
	1.812987527257626e-04
	4.674060828180066e-05
	4.438660925273583e-01

 103	1.030000000000001e+00
	-1.106697703422356e-15
	-1.469858068778087e-17
	-2.932573760345949e-14
	4.155370206733987e-06
	1.854670248901554e-04
	4.857440529726988e-05
	4.438661248823089e-01

 104	1.040000000000001e+00
	-1.076030371539144e-15
	-1.535604106598839e-17
	-2.940337740563735e-14
	4.335932236959549e-06
	1.896441749984915e-04
	5.044993068453013e-05
	4.438661579735000e-01

 105	1.050000000000001e+00
	-1.045988190501378e-15
	-1.603859040500265e-17
	-2.947804415138983e-14
	4.525488946564046e-06
	1.938273549716100e-04
	5.236725904670845e-05
	4.438661918022473e-01

 106	1.060000000000001e+00
	-1.016523016684067e-15
	-1.674724074201865e-17
	-2.954996277141663e-14
	4.724596741971557e-06
	1.980136071508560e-04
	5.432643595780609e-05
	4.438662263693551e-01

 107	1.070000000000001e+00
	-9.875909362594919e-16
	-1.748305246801713e-17
	-2.961933905079490e-14
	4.933845604539374e-06
	2.021998653233714e-04
	5.632747687193429e-05
	4.438662616750954e-01

 108	1.080000000000001e+00
	-9.591518888903909e-16
	-1.824713670176804e-17
	-2.968636124004908e-14
	5.153860667093974e-06
	2.063829559522708e-04
	5.837036604381639e-05
	4.438662977191902e-01

 109	1.090000000000001e+00
	-9.311693220350085e-16
	-1.904065780231564e-17
	-2.975120154542185e-14
	5.385303800103066e-06
	2.105595996274319e-04
	6.045505546268235e-05
	4.438663345007919e-01

 110	1.100000000000001e+00
	-9.036098740557577e-16
	-1.986483602796457e-17
	-2.981401750396937e-14
	5.628875196532020e-06
	2.147264127532210e-04
	6.258146380184466e-05
	4.438663720184655e-01

 111	1.110000000000001e+00
	-8.764430842765238e-16
	-2.072095035026183e-17
	-2.987495324961875e-14
	5.885314942644558e-06
	2.188799094900297e-04
	6.474947538640560e-05
	4.438664102701721e-01

 112	1.120000000000001e+00
	-8.496411281317667e-16
	-2.161034143198190e-17
	-2.993414067660978e-14
	6.155404560063651e-06
	2.230165039670848e-04
	6.695893918172605e-05
	4.438664492532429e-01

 113	1.130000000000001e+00
	-8.231785755829110e-16
	-2.253441477866315e-17
	-2.999170050684733e-14
	6.439968502310099e-06
	2.271325127845410e-04
	6.920966780544935e-05
	4.438664889643741e-01

 114	1.140000000000001e+00
	-7.970321710332215e-16
	-2.349464407383858e-17
	-3.004774326765889e-14
	6.739875586793197e-06
	2.312241578234879e-04
	7.150143656607504e-05
	4.438665293996001e-01

 115	1.150000000000001e+00
	-7.711806330465334e-16
	-2.449257470871958e-17
	-3.010237018631809e-14
	7.056040340852047e-06
	2.352875693830613e-04
	7.383398253124881e-05
	4.438665705542829e-01

 116	1.160000000000001e+00
	-7.456044722600748e-16
	-2.552982751775835e-17
	-3.015567400748523e-14
	7.389424237956862e-06
	2.393187896644733e-04
	7.620700362914506e-05
	4.438666124230898e-01

 117	1.170000000000001e+00
	-7.202858259739660e-16
	-2.660810273222019e-17
	-3.020773973945632e-14
	7.741036797603909e-06
	2.433137766223117e-04
	7.862015778650403e-05
	4.438666549999891e-01

 118	1.180000000000001e+00
	-6.952083079952639e-16
	-2.772918416464441e-17
	-3.025864533481640e-14
	8.111936519812405e-06
	2.472684082040350e-04
	8.107306210710987e-05
	4.438666982782219e-01

 119	1.190000000000001e+00
	-6.703568724114648e-16
	-2.889494363786807e-17
	-3.030846231077589e-14
	8.503231622497125e-06
	2.511784869989974e-04
	8.356529209468744e-05
	4.438667422502999e-01

 120	1.200000000000001e+00
	-6.457176900632937e-16
	-3.010734567312259e-17
	-3.035725631414420e-14
	8.916080547406904e-06
	2.550397453187375e-04
	8.609638092443098e-05
	4.438667869079848e-01

 121	1.210000000000001e+00
	-6.212780365798826e-16
	-3.136845245260600e-17
	-3.040508763556484e-14
	9.351692197848887e-06
	2.588478507304036e-04
	8.866581876757832e-05
	4.438668322422824e-01

 122	1.220000000000001e+00
	-5.970261909283686e-16
	-3.268042907286746e-17
	-3.045201167731357e-14
	9.811325869141907e-06
	2.625984120651979e-04
	9.127305217367591e-05
	4.438668782434287e-01

 123	1.230000000000001e+00
	-5.729513435151261e-16
	-3.404554910633307e-17
	-3.049807937864518e-14
	1.029629083074862e-05
	2.662869859233953e-04
	9.391748351539222e-05
	4.438669249008770e-01

 124	1.240000000000001e+00
	-5.490435129561506e-16
	-3.546620048934519e-17
	-3.054333760237106e-14
	1.080794551742848e-05
	2.699090836968378e-04
	9.659847050094643e-05
	4.438669722032945e-01

 125	1.250000000000001e+00
	-5.252934707092700e-16
	-3.694489175618087e-17
	-3.058782948606094e-14
	1.134769628564416e-05
	2.734601791287302e-04
	9.931532575943418e-05
	4.438670201385544e-01

 126	1.260000000000001e+00
	-5.016926728311121e-16
	-3.848425863968064e-17
	-3.063159476098783e-14
	1.191699569096905e-05
	2.769357164289331e-04
	1.020673165045071e-04
	4.438670686937263e-01

 127	1.270000000000001e+00
	-4.782331981874604e-16
	-4.008707106031617e-17
	-3.067467004167775e-14
	1.251734024251080e-05
	2.803311189607719e-04
	1.048536642820509e-04
	4.438671178550799e-01

 128	1.280000000000001e+00
	-4.549076925051498e-16
	-4.175624052680954e-17
	-3.071708908868523e-14
	1.315026759152427e-05
	2.836417985124565e-04
	1.076735448076401e-04
	4.438671676080642e-01

 129	1.290000000000001e+00
	-4.317093177108071e-16
	-4.349482797273601e-17
	-3.075888304698944e-14
	1.381735311356997e-05
	2.868631651625392e-04
	1.105260878996663e-04
	4.438672179373312e-01

 130	1.300000000000001e+00
	-4.086317060510729e-16
	-4.530605205494386e-17
	-3.080008066219950e-14
	1.452020584692021e-05
	2.899906377442908e-04
	1.134103775141122e-04
	4.438672688267163e-01

 131	1.310000000000001e+00
	-3.856689185376625e-16
	-4.719329794105824e-17
	-3.084070847656222e-14
	1.526046375453453e-05
	2.930196549084140e-04
	1.163254518869574e-04
	4.438673202592505e-01

 132	1.320000000000001e+00
	-3.628154073025129e-16
	-4.916012661485592e-17
	-3.088079100658855e-14
	1.603978828293389e-05
	2.959456867770485e-04
	1.192703037901728e-04
	4.438673722171632e-01

 133	1.330000000000001e+00
	-3.400659814878855e-16
	-5.121028472985312e-17
	-3.092035090395085e-14
	1.685985819877154e-05
	2.987642471745888e-04
	1.222438809071529e-04
	4.438674246818866e-01

 134	1.340000000000001e+00
	-3.174157763322578e-16
	-5.334771504306481e-17
	-3.095940910115149e-14
	1.772236269286649e-05
	3.014709064123240e-04
	1.252450863332371e-04
	4.438674776340660e-01

 135	1.350000000000001e+00
	-2.948602251451624e-16
	-5.557656746256585e-17
	-3.099798494332568e-14
	1.862899375194760e-05
	3.040613045945203e-04
	1.282727792067167e-04
	4.438675310535763e-01

 136	1.360000000000001e+00
	-2.723950338937176e-16
	-5.790121074418909e-17
	-3.103609630741490e-14
	1.958143781028223e-05
	3.065311654031780e-04
	1.313257754753305e-04
	4.438675849195226e-01

 137	1.370000000000001e+00
	-2.500161581513226e-16
	-6.032624487444612e-17
	-3.107375970982933e-14
	2.058136670663518e-05
	3.088763103076034e-04
	1.344028488027717e-04
	4.438676392102675e-01

 138	1.380000000000001e+00
	-2.277197821822099e-16
	-6.285651417853442e-17
	-3.111099040361496e-14
	2.163042798644480e-05
	3.110926731332181e-04
	1.375027316191461e-04
	4.438676939034489e-01

 139	1.390000000000001e+00
	-2.055022999588012e-16
	-6.549712119410435e-17
	-3.114780246604076e-14
	2.273023460445608e-05
	3.131763149119256e-04
	1.406241163185897e-04
	4.438677489759951e-01

 140	1.400000000000001e+00
	-1.833602979285174e-16
	-6.825344135323794e-17
	-3.118420887743603e-14
	2.388235409900716e-05
	3.151234389241542e-04
	1.437656566064202e-04
	4.438678044041506e-01

 141	1.410000000000001e+00
	-1.612905393650433e-16
	-7.113113851691793e-17
	-3.122022159202459e-14
	2.508829732533956e-05
	3.169304058307173e-04
	1.469259689972450e-04
	4.438678601635061e-01

 142	1.420000000000001e+00
	-1.392899501552888e-16
	-7.413618140801174e-17
	-3.125585160143221e-14
	2.634950685123621e-05
	3.185937487812292e-04
	1.501036344643624e-04
	4.438679162290265e-01

 143	1.430000000000001e+00
	-1.173556058887141e-16
	-7.727486099052689e-17
	-3.129110899147440e-14
	2.766734513349106e-05
	3.201101883753834e-04
	1.532972002396137e-04
	4.438679725750788e-01

 144	1.440000000000001e+00
	-9.548472012901945e-17
	-8.055380884451468e-17
	-3.132600299277177e-14
	2.904308260764100e-05
	3.214766473443627e-04
	1.565051817615557e-04
	4.438680291754695e-01

 145	1.450000000000001e+00
	-7.367463376045204e-17
	-8.398001658757444e-17
	-3.136054202568533e-14
	3.047788583549348e-05
	3.226902648124160e-04
	1.597260647684642e-04
	4.438680860034794e-01

 146	1.460000000000001e+00
	-5.192280531238946e-17
	-8.756085639523244e-17
	-3.139473374001276e-14
	3.197280586470143e-05
	3.237484099935718e-04
	1.629583075312406e-04
	4.438681430319122e-01

 147	1.470000000000001e+00
	-3.022680217520297e-17
	-9.130410267375055e-17
	-3.142858504984228e-14
	3.352876696149069e-05
	3.246486951760096e-04
	1.662003432198504e-04
	4.438682002331181e-01

 148	1.480000000000001e+00
	-8.584292631121550e-18
	-9.521795493980175e-17
	-3.146210216391722e-14
	3.514655588112598e-05
	3.253889878469264e-04
	1.694505823954133e-04
	4.438682575790556e-01

 149	1.490000000000001e+00
	1.300696136995433e-17
	-9.931106196218388e-17
	-3.149529061182947e-14
	3.682681184051512e-05
	3.259674218142472e-04
	1.727074156186453e-04
	4.438683150413282e-01

 150	1.500000000000001e+00
	3.454911075010959e-17
	-1.035925472210066e-16
	-3.152815526632264e-14
	3.857001735317831e-05
	3.263824071881557e-04
	1.759692161639205e-04
	4.438683725912351e-01

 151	1.510000000000001e+00
	5.604422521381922e-17
	-1.080720357396642e-16
	-3.156070036195796e-14
	4.037649007858123e-05
	3.266326390953384e-04
	1.792343428269075e-04
	4.438684301998180e-01

 152	1.520000000000001e+00
	7.749429857667840e-17
	-1.127596823442639e-16
	-3.159292951036491e-14
	4.224637582555721e-05
	3.267171050118585e-04
	1.825011428125218e-04
	4.438684878379165e-01

 153	1.530000000000001e+00
	9.890125355551745e-17
	-1.176662014038736e-16
	-3.162484571227660e-14
	4.417964283343152e-05
	3.266350906165498e-04
	1.857679546888844e-04