Title: **.subckt gm_id_pmos
Date: Sat Jun 12 17:35:34  2021
Plotname: DC transfer characteristic
Flags: real
No. Variables: 8
No. Points: 181
Variables:
	0	v(v-sweep)	voltage
	1	@m.xm1.msky130_fd_pr__pfet_01v8_lvt[cgb]	capacitance
	2	@m.xm1.msky130_fd_pr__pfet_01v8_lvt[cgd]	capacitance
	3	@m.xm1.msky130_fd_pr__pfet_01v8_lvt[cgs]	capacitance
	4	@m.xm1.msky130_fd_pr__pfet_01v8_lvt[gds]	admittance
	5	@m.xm1.msky130_fd_pr__pfet_01v8_lvt[gm]	admittance
	6	i(@m.xm1.msky130_fd_pr__pfet_01v8_lvt[id])	current
	7	v(@m.xm1.msky130_fd_pr__pfet_01v8_lvt[vth])	voltage
Values:
 0	0.000000000000000e+00
	-2.634394260557092e-13
	-8.999308042201614e-20
	-2.026509817691571e-15
	9.366058150646327e-13
	2.458220484208681e-10
	9.030312093517215e-12
	4.532080111638443e-01

 1	1.000000000000000e-02
	-2.620655914976511e-13
	-9.941999299097842e-20
	-2.187424699434899e-15
	1.229423763644743e-12
	3.222732347721389e-10
	1.185367733705245e-11
	4.532080111638531e-01

 2	2.000000000000000e-02
	-2.607075534448459e-13
	-1.097964022605182e-19
	-2.362814402087692e-15
	1.613190481018729e-12
	4.222711635101843e-10
	1.555408513803287e-11
	4.532080111638684e-01

 3	3.000000000000000e-02
	-2.593645391631004e-13
	-1.212135934144085e-19
	-2.553903494416878e-15
	2.115857108392318e-12
	5.529551257158999e-10
	2.040115463939774e-11
	4.532080111638861e-01

 4	4.000000000000000e-02
	-2.580357586119261e-13
	-1.337715311678213e-19
	-2.762046599869298e-15
	2.773818018480677e-12
	7.235741101074956e-10
	2.674600568931596e-11
	4.532080111639081e-01

 5	5.000000000000000e-02
	-2.567203984068746e-13
	-1.475797943465675e-19
	-2.988749477393969e-15
	3.634389414878365e-12
	9.460840044646113e-10
	3.504522453000999e-11
	4.532080111639368e-01

 6	6.000000000000000e-02
	-2.554176149922660e-13
	-1.627586364381481e-19
	-3.235693307713062e-15
	4.758980869135405e-12
	1.235901599653553e-09
	4.589155815866095e-11
	4.532080111639763e-01

 7	7.000000000000001e-02
	-2.541265269857348e-13
	-1.794401886481492e-19
	-3.504762383268536e-15
	6.227137033416892e-12
	1.612851002474492e-09
	6.005307876000514e-11
	4.532080111640268e-01

 8	8.000000000000000e-02
	-2.528462066644467e-13
	-1.977698231717219e-19
	-3.798075376476982e-15
	8.141664375263080e-12
	2.102343698035444e-09
	7.852294381041608e-11
	4.532080111640929e-01

 9	9.000000000000000e-02
	-2.515756705702290e-13
	-2.179076955315603e-19
	-4.118020340366106e-15
	1.063509975183404e-11
	2.736838961391691e-09
	1.025823175011996e-10
	4.532080111641809e-01

 10	9.999999999999999e-02
	-2.503138692167425e-13
	-2.400304859551825e-19
	-4.467293579476225e-15
	1.387782266078991e-11
	3.557636059561791e-09
	1.338795107026713e-10
	4.532080111642931e-01

 11	1.100000000000000e-01
	-2.490596758861634e-13
	-2.643333608825978e-19
	-4.848942517505452e-15
	1.808815862736439e-11
	4.617052998691417e-09
	1.745289291946377e-10
	4.532080111644383e-01

 12	1.200000000000000e-01
	-2.478118745058775e-13
	-2.910321768269551e-19
	-5.266412680870065e-15
	2.354486344148114e-11
	5.981047622953805e-09
	2.272339749428356e-10
	4.532080111646276e-01

 13	1.300000000000000e-01
	-2.465691465977952e-13
	-3.203659499682834e-19
	-5.723598912643527e-15
	3.060241095313501e-11
	7.732334822954993e-09
	2.954385959201329e-10
	4.532080111648740e-01

 14	1.400000000000000e-01
	-2.453300572947871e-13
	-3.525996160497675e-19
	-6.224900926989414e-15
	3.970952273944449e-11
	9.974047848923759e-09
	3.835126919640402e-10
	4.532080111651887e-01

 15	1.500000000000000e-01
	-2.440930404210497e-13
	-3.880271063642886e-19
	-6.775283307751623e-15
	5.143136570981330e-11
	1.283398223342125e-08
	4.969770195246446e-10
	4.532080111655979e-01

 16	1.600000000000000e-01
	-2.428563826366706e-13
	-4.269747668539885e-19
	-7.380340043769769e-15
	6.647579114146305e-11
	1.646944871809003e-08
	6.427735639625707e-10
	4.532080111661216e-01

 17	1.700000000000000e-01
	-2.416182066517431e-13
	-4.698051485759340e-19
	-8.046363675424127e-15
	8.572388223148478e-11
	2.107274971282075e-08
	8.295875506878413e-10
	4.532080111667927e-01

 18	1.800000000000000e-01
	-2.403764535227494e-13
	-5.169211989835144e-19
	-8.780419099743089e-15
	1.102649043698221e-10
	2.687728742336119e-08
	1.068227372304544e-09
	4.532080111676487e-01

 19	1.900000000000000e-01
	-2.391288640539378e-13
	-5.687708845957168e-19
	-9.590422042832193e-15
	1.414355041449278e-10
	3.416431879486664e-08
	1.372068810172990e-09
	4.532080111687399e-01

 20	2.000000000000000e-01
	-2.378729593398316e-13
	-6.258522766291937e-19
	-1.048522215557448e-14
	1.808626784995819e-10
	4.327040314452901e-08
	1.757570209424564e-09
	4.532080111701262e-01

 21	2.100000000000000e-01
	-2.366060205027665e-13
	-6.887191319883932e-19
	-1.147469061716161e-14
	2.305096455444121e-10
	5.459565406087344e-08
	2.244866020094043e-09
	4.532080111718755e-01

 22	2.200000000000001e-01
	-2.353250677031305e-13
	-7.579870025659666e-19
	-1.256981203440022e-14
	2.927233204734768e-10
	6.861301715790872e-08
	2.858447743330916e-09
	4.532080111740791e-01

 23	2.300000000000001e-01
	-2.340268385322706e-13
	-8.343399059907615e-19
	-1.378278029281709e-14
	3.702816788032093e-10
	8.587895260660165e-08
	3.627944286151009e-09
	4.532080111768438e-01

 24	2.400000000000001e-01
	-2.327077659423956e-13
	-9.185375906179698e-19
	-1.512709783396961e-14
	4.664389352844905e-10
	1.070460975134080e-07
	4.589018473343627e-09
	4.532080111802961e-01

 25	2.500000000000001e-01
	-2.313639559290965e-13
	-1.011423426474171e-18
	-1.661767758280169e-14
	5.849662483387478e-10
	1.328786935316509e-07
	5.784403270685267e-09
	4.532080111845889e-01

 26	2.600000000000001e-01
	-2.299911652662850e-13
	-1.113932951758825e-18
	-1.827094640511877e-14
	7.301856381975277e-10
	1.642717469201684e-07
	7.265110082587104e-09
	4.532080111899072e-01

 27	2.700000000000001e-01
	-2.285847797073572e-13
	-1.227103100977890e-18
	-2.010494850977957e-14
	9.069950186943238e-10
	2.022749838617654e-07
	9.091851735958789e-09
	4.532080111964708e-01

 28	2.800000000000001e-01
	-2.271397932176106e-13
	-1.352082135352750e-18
	-2.213944659191617e-14
	1.120882681766912e-09
	2.481226090434831e-07
	1.133673326757503e-08
	4.532080112045338e-01

 29	2.900000000000001e-01
	-2.256507889984583e-13
	-1.490140288201483e-18
	-2.439601771137834e-14
	1.377930180590103e-09
	3.032696127714810e-07
	1.408527259135444e-08
	4.532080112144068e-01

 30	3.000000000000001e-01
	-2.241119233095628e-13
	-1.642681126811254e-18
	-2.689813988779916e-14
	1.684803221816188e-09
	3.694348642948010e-07
	1.743881824856717e-08
	4.532080112264524e-01

 31	3.100000000000001e-01
	-2.225169133935886e-13
	-1.811253617098658e-18
	-2.967126415253668e-14
	2.048730759524757e-09
	4.486504700562408e-07
	2.151743022923664e-08
	4.532080112411033e-01

 32	3.200000000000001e-01
	-2.208590311586764e-13
	-1.997564857223719e-18
	-3.274286532646210e-14
	2.477472848488499e-09
	5.433158917953506e-07
	2.646327988941779e-08
	4.532080112588676e-01

 33	3.300000000000001e-01
	-2.191311046684427e-13
	-2.203493420418079e-18
	-3.614246311265590e-14
	2.979277874658785e-09
	6.562541659672401e-07
	3.244460428314035e-08
	4.532080112803538e-01

 34	3.400000000000001e-01
	-2.173255299127355e-13
	-2.431103214833862e-18
	-3.990160325827375e-14
	3.562829530336145e-09
	7.907663201759029e-07
	3.966021745315560e-08
	4.532080113062726e-01

 35	3.500000000000001e-01
	-2.154342957585693e-13
	-2.682657728637999e-18
	-4.405378664520288e-14
	4.237183430272268e-09
	9.506788420275920e-07
	4.834453592848354e-08
	4.532080113374668e-01

 36	3.600000000000002e-01
	-2.134490253714618e-13
	-2.960634481641802e-18
	-4.863433236070125e-14
	5.011692746168734e-09
	1.140377946225839e-06
	5.877301851210239e-08
	4.532080113749262e-01

 37	3.700000000000002e-01
	-2.113610377008186e-13
	-3.267739450741641e-18
	-5.368015928129925e-14
	5.895921888942552e-09
	1.364823572834115e-06
	7.126785350636775e-08
	4.532080114198086e-01

 38	3.800000000000002e-01
	-2.091614327728696e-13
	-3.606921176354361e-18
	-5.922946974326450e-14
	6.899547300287186e-09
	1.629535749248467e-06
	8.620365382146033e-08
	4.532080114734581e-01

 39	3.900000000000002e-01
	-2.068412044517882e-13
	-3.981384192757148e-18
	-6.532131879838234e-14
	8.032244973182971e-09
	1.940546416142408e-06
	1.040128483253812e-07
	4.532080115374294e-01

 40	4.000000000000002e-01
	-2.043913839258138e-13
	-4.394601359794602e-18
	-7.199505373975692e-14
	9.303565444161107e-09
	2.304311306820137e-06
	1.251903952993200e-07
	4.532080116135002e-01

 41	4.100000000000002e-01
	-2.018032163607090e-13
	-4.850324611040000e-18
	-7.928961142360779e-14
	1.072279859983990e-08
	2.727579154537181e-06
	1.502974021518655e-07
	4.532080117036851e-01

 42	4.200000000000002e-01
	-1.990683718581941e-13
	-5.352593579726122e-18
	-8.724266577890486e-14
	1.229883250608322e-08
	3.217219381060938e-06
	1.799632267559697e-07
	4.532080118102470e-01

 43	4.300000000000002e-01
	-1.961791900089184e-13
	-5.905741525308840e-18
	-9.588962506590194e-14
	1.404001229890883e-08
	3.780014223601718e-06
	2.148856707467303e-07
	4.532080119356889e-01

 44	4.400000000000002e-01
	-1.931289549307723e-13
	-6.514397967982131e-18
	-1.052624880239303e-13
	1.595400663273173e-08
	4.422426411854526e-06
	2.558289604859642e-07
	4.532080120827590e-01

 45	4.500000000000002e-01
	-1.899121947933943e-13
	-7.183487453730258e-18
	-1.153885798828042e-13
	1.804768995139463e-08
	5.150358178477659e-06
	3.036193466702081e-07
	4.532080122544242e-01

 46	4.600000000000002e-01
	-1.865249965930790e-13
	-7.918223925975067e-18
	-1.262892027986128e-13
	2.032704871151541e-08
	5.968920629411152e-06
	3.591383291806729e-07
	4.532080124538510e-01

 47	4.700000000000003e-01
	-1.829653235991619e-13
	-8.724100277393078e-18
	-1.379782497074101e-13
	2.279711857148278e-08
	6.882233484056161e-06
	4.233137111079151e-07
	4.532080126843708e-01

 48	4.800000000000003e-01
	-1.792333197765514e-13
	-9.606872800102246e-18
	-1.504608445520876e-13
	2.546195755775203e-08
	7.893273445743634e-06
	4.971088795785775e-07
	4.532080129494455e-01

 49	4.900000000000003e-01
	-1.753315830045915e-13
	-1.057254044330016e-17
	-1.637320836677771e-13
	2.832465758462384e-08
	9.003785039347534e-06
	5.815108735466615e-07
	4.532080132526211e-01

 50	5.000000000000002e-01
	-1.712653874952342e-13
	-1.162731901880228e-17
	-1.777759609599839e-13
	3.138739379538546e-08
	1.021426128441294e-05
	6.775179060466684e-07
	4.532080135974821e-01

 51	5.100000000000002e-01
	-1.670428358679671e-13
	-1.277761075565155e-17
	-1.925645615801957e-13
	3.465150840978593e-08
	1.152399412949403e-05
	7.861270451698205e-07
	4.532080139876104e-01

 52	5.200000000000002e-01
	-1.626749231653241e-13
	-1.402996987874818e-17
	-2.080576036535161e-13
	3.811762346217070e-08
	1.293118741093787e-05
	9.083227207226317e-07
	4.532080144265410e-01

 53	5.300000000000002e-01
	-1.581754988143348e-13
	-1.539106515279299e-17
	-2.242023944700655e-13
	4.178577524868212e-08
	1.443311935188847e-05
	1.045066620852914e-06
	4.532080149177313e-01

 54	5.400000000000003e-01
	-1.535611180452984e-13
	-1.686764056900422e-17
	-2.409342465806164e-13
	4.565556258340769e-08
	1.602633804951864e-05
	1.197289393240483e-06
	4.532080154645208e-01

 55	5.500000000000003e-01
	-1.488507812009452e-13
	-1.846647553544479e-17
	-2.581773716807757e-13
	4.972630106472429e-08
	1.770687227858046e-05
	1.365884392311673e-06
	4.532080160701207e-01

 56	5.600000000000003e-01
	-1.440655670986851e-13
	-2.019434604287162e-17
	-2.758462383196162e-13
	5.399717633508780e-08
	1.947044105685034e-05
	1.551703541133699e-06
	4.532080167375906e-01

 57	5.700000000000003e-01
	-1.392281743664034e-13
	-2.205798830294189e-17
	-2.938473464377135e-13
	5.846739057299329e-08
	2.131264821525003e-05
	1.755555223976494e-06
	4.532080174698338e-01

 58	5.800000000000003e-01
	-1.343623916120144e-13
	-2.406406628846818e-17
	-3.120813410469788e-13
	6.313629795956306e-08
	2.322915197241834e-05
	1.978204006250360e-06
	4.532080182695963e-01

 59	5.900000000000003e-01
	-1.294925226235064e-13
	-2.621914444921995e-17
	-3.304453624231487e-13
	6.800352640816553e-08
	2.521580352466888e-05
	2.220371898633206e-06
	4.532080191394722e-01

 60	6.000000000000003e-01
	-1.246427959284377e-13
	-2.852966664335372e-17
	-3.488355137681104e-13
	7.306908427434687e-08
	2.726875236218672e-05
	2.482740841254363e-06
	4.532080200819117e-01

 61	6.100000000000003e-01
	-1.198367886471155e-13
	-3.100194203327392e-17
	-3.671493211217710e-13
	7.833345197169094e-08
	2.938451904559085e-05
	2.765956076687515e-06
	4.532080210992328e-01

 62	6.200000000000003e-01
	-1.150968926531271e-13
	-3.364213836986791e-17
	-3.852880647564912e-13
	8.379765935679533e-08
	3.156003835939837e-05
	3.070630099480923e-06
	4.532080221936325e-01

 63	6.300000000000003e-01
	-1.104438469220076e-13
	-3.645628275703327e-17
	-4.031588754376227e-13
	8.946335040787224e-08
	3.379267709971202e-05
	3.397346906490927e-06
	4.532080233672111e-01

 64	6.400000000000003e-01
	-1.058963541656925e-13
	-3.945026967450967e-17
	-4.206765107314540e-13
	9.533283713109096e-08
	3.608023136092116e-05
	3.746666318443739e-06
	4.532080246219797e-01

 65	6.500000000000004e-01
	-1.014707931277406e-13
	-4.262987576268164e-17
	-4.377647532000696e-13
	1.014091448283495e-07
	3.842090822388969e-05
	4.119128192386102e-06
	4.532080259598777e-01

 66	6.600000000000004e-01
	-9.718103099701348e-14
	-4.600078065406433e-17
	-4.543574007811878e-13
	1.076960508991208e-07
	4.081329639194564e-05
	4.515256392189126e-06
	4.532080273827855e-01

 67	6.700000000000004e-01
	-9.303833395977666e-14
	-4.956859298155283e-17
	-4.703988470230922e-13
	1.141981192744763e-07
	4.325632973082478e-05
	4.935562426915702e-06
	4.532080288925413e-01

 68	6.800000000000004e-01
	-8.905136847584192e-14
	-5.333888060559515e-17
	-4.858442727760919e-13
	1.209207324359426e-07
	4.574924697369696e-05
	5.380548702992809e-06
	4.532080304909495e-01

 69	6.900000000000004e-01
	-8.522628176439699e-14
	-5.731720407761383e-17
	-5.006594898257555e-13
	1.278701227890704e-07
	4.829155014646179e-05
	5.850711365190162e-06
	4.532080321797914e-01

 70	7.000000000000004e-01
	-8.156684735067138e-14
	-6.150915238708546e-17
	-5.148204899985896e-13
	1.350534049679813e-07
	5.088296361281529e-05
	6.346542723619502e-06
	4.532080339608366e-01

 71	7.100000000000004e-01
	-7.807466031072510e-14
	-6.592038011374546e-17
	-5.283127604374986e-13
	1.424786104599761e-07
	5.352339506735000e-05
	6.868533280030370e-06
	4.532080358358472e-01

 72	7.200000000000004e-01
	-7.474936688053981e-14
	-7.055664521197003e-17
	-5.411304275874001e-13
	1.501547257718852e-07
	5.621289933211310e-05
	7.417173377511689e-06
	4.532080378065829e-01

 73	7.300000000000004e-01
	-7.158891410735963e-14
	-7.542384677944211e-17
	-5.532752899018899e-13
	1.580917352169079e-07
	5.895164543792981e-05
	7.992954504312411e-06
	4.532080398748108e-01

 74	7.400000000000004e-01
	-6.858980692312166e-14
	-8.052806229560407e-17
	-5.647557935243455e-13
	1.663006692877309e-07
	6.173988718835582e-05
	8.596370285820503e-06
	4.532080420423022e-01

 75	7.500000000000004e-01
	-6.574736212651219e-14
	-8.587558394795207e-17
	-5.755859973755103e-13
	1.747936594974579e-07
	6.457793719903064e-05
	9.227917199631486e-06
	4.532080443108438e-01

 76	7.600000000000005e-01
	-6.305595102206346e-14
	-9.147295378910919e-17
	-5.857845652502745e-13
	1.835840005148997e-07
	6.746614426470853e-05
	9.888095047816666e-06
	4.532080466822286e-01

 77	7.700000000000005e-01
	-6.050922468380271e-14
	-9.732699757975287e-17
	-5.953738135571698e-13
	1.926862203923032e-07
	7.040487381687969e-05
	1.057740721853821e-05
	4.532080491582633e-01

 78	7.800000000000005e-01
	-5.810031784584475e-14
	-1.034448572693072e-16
	-6.043788348732533e-13
	2.021161596804859e-07
	7.339449118454610e-05
	1.129636076650815e-05
	4.532080517407719e-01

 79	7.900000000000005e-01
	-5.582202918543123e-14
	-1.098340221466047e-16
	-6.128267099635423e-13
	2.118910602458177e-07
	7.643534734906334e-05
	1.204546633878753e-05
	4.532080544315873e-01

 80	8.000000000000005e-01
	-5.366697721359871e-14
	-1.165023587565962e-16
	-6.207458145635262e-13
	2.220296646432684e-07
	7.952776688251624e-05
	1.282523796930609e-05
	4.532080572325577e-01

 81	8.100000000000005e-01
	-5.162773211875791e-14
	-1.234581397279248e-16
	-6.281652221255524e-13
	2.325523269609261e-07
	8.267203777126270e-05
	1.363619276243355e-05
	4.532080601455380e-01

 82	8.200000000000005e-01
	-4.969692473820362e-14
	-1.307100716912461e-16
	-6.351141998498659e-13
	2.434811361279644e-07
	8.586840284691933e-05
	1.447885048304492e-05
	4.532080631723965e-01

 83	8.300000000000005e-01
	-4.786733439648009e-14
	-1.382673224917387e-16
	-6.416217925487710e-13
	2.548400527751358e-07
	8.911705257243871e-05
	1.535373306787026e-05
	4.532080663150075e-01

 84	8.400000000000005e-01
	-4.613195769015835e-14
	-1.461395479133415e-16
	-6.477164870745811e-13
	2.666550608484985e-07
	9.241811895834294e-05
	1.626136407053242e-05
	4.532080695752526e-01

 85	8.500000000000005e-01
	-4.448406046018306e-14
	-1.543369181387726e-16
	-6.534259490094473e-13
	2.789543353086964e-07
	9.577167041175737e-05
	1.720226805056484e-05
	4.532080729550151e-01

 86	8.600000000000005e-01
	-4.291721521787234e-14
	-1.628701441703741e-16
	-6.587768228995349e-13
	2.917684273955734e-07
	9.917770734741421e-05
	1.817696991486067e-05
	4.532080764561818e-01

 87	8.700000000000006e-01
	-4.142532621652276e-14
	-1.717505044337300e-16
	-6.637945873631463e-13
	3.051304691058252e-07
	1.026361584145362e-04
	1.918599421842506e-05
	4.532080800806350e-01

 88	8.800000000000006e-01
	-4.000264421946553e-14
	-1.809898717802522e-16
	-6.685034567775728e-13
	3.190763987173549e-07
	1.061468772160069e-04
	2.022986442995092e-05
	4.532080838302572e-01

 89	8.900000000000006e-01
	-3.864377283320330e-14
	-1.906007410976262e-16
	-6.729263218411415e-13
	3.336452094052659e-07
	1.097096394163769e-04
	2.130910216661070e-05
	4.532080877069199e-01

 90	9.000000000000006e-01
	-3.734366807118069e-14
	-2.005962577291259e-16
	-6.770847220257526e-13
	3.488792232250740e-07
	1.133241401529763e-04
	2.242422640150724e-05
	4.532080917124888e-01

 91	9.100000000000006e-01
	-3.609763260476792e-14
	-2.109902468948171e-16
	-6.809988437130643e-13
	3.648243929986271e-07
	1.169899916798507e-04
	2.357575264645484e-05
	4.532080958488143e-01

 92	9.200000000000006e-01
	-3.490130595390653e-14
	-2.217972443003262e-16
	-6.846875385939026e-13
	3.815306349258945e-07
	1.207067211875060e-04
	2.476419211212020e-05
	4.532081001177339e-01

 93	9.300000000000006e-01
	-3.375065167760206e-14
	-2.330325281124064e-16
	-6.881683576707165e-13
	3.990521950644844e-07
	1.244737687527964e-04
	2.599005084704659e-05
	4.532081045210649e-01

 94	9.400000000000006e-01
	-3.264194244841370e-14
	-2.447121524751046e-16
	-6.914575969138417e-13
	4.174480531733622e-07
	1.282904853828518e-04
	2.725382885667360e-05
	4.532081090606028e-01

 95	9.500000000000006e-01
	-3.157174373749670e-14
	-2.568529827364390e-16
	-6.945703512705608e-13
	4.367823678102034e-07
	1.321561311249674e-04
	2.855601920314721e-05
	4.532081137381188e-01

 96	9.600000000000006e-01
	-3.053689669823085e-14
	-2.694727325526889e-16
	-6.975205743050603e-13
	4.571249670080753e-07
	1.360698732210260e-04
	2.989710708646669e-05
	4.532081185553579e-01

 97	9.700000000000006e-01
	-2.953450071671025e-14
	-2.825900030363945e-16
	-7.003211412558296e-13
	4.785518893394265e-07
	1.400307842904896e-04
	3.127756890733195e-05
	4.532081235140296e-01

 98	9.800000000000006e-01
	-2.856189599524769e-14
	-2.962243241141706e-16
	-7.029839137370085e-13
	5.011459807124848e-07
	1.440378405304100e-04
	3.269787131191235e-05
	4.532081286158085e-01

 99	9.900000000000007e-01
	-2.761664644912297e-14
	-3.103961982622355e-16
	-7.055198046858250e-13
	5.249975528354179e-07
	1.480899199244539e-04
	3.415847021866809e-05
	4.532081338623338e-01

 100	1.000000000000001e+00
	-2.669652312537184e-14
	-3.251271467905490e-16
	-7.079388424752246e-13
	5.502051099411176e-07
	1.521858004556830e-04
	3.565980982728400e-05
	4.532081392552028e-01

 101	1.010000000000001e+00
	-2.579948829374680e-14
	-3.404397588507228e-16
	-7.102502333751675e-13
	5.768761510882235e-07
	1.563241583199198e-04
	3.720232160973732e-05
	4.532081447959624e-01

 102	1.020000000000001e+00
	-2.492368031237953e-14
	-3.563577433486750e-16
	-7.124624217642113e-13
	6.051280561514966e-07
	1.605035661380337e-04
	3.878642328349377e-05
	4.532081504861145e-01

 103	1.030000000000001e+00
	-2.406739933250254e-14
	-3.729059839498233e-16
	-7.145831476710598e-13
	6.350890644953531e-07
	1.647224911664863e-04
	4.041251776682024e-05
	4.532081563271066e-01

 104	1.040000000000001e+00
	-2.322909387644491e-14
	-3.901105973728410e-16
	-7.166195013693834e-13
	6.668993562868910e-07
	1.689792935060274e-04
	4.208099211619291e-05
	4.532081623203295e-01

 105	1.050000000000001e+00
	-2.240734829962947e-14
	-4.079989951773714e-16
	-7.185779748637355e-13
	7.007122474619531e-07
	1.732722243086100e-04
	4.379221644578551e-05
	4.532081684671099e-01

 106	1.060000000000001e+00
	-2.160087112935729e-14
	-4.265999492616717e-16
	-7.204645101944319e-13
	7.366955105132822e-07
	1.775994239823993e-04
	4.554654282901587e-05
	4.532081747687163e-01

 107	1.070000000000001e+00
	-2.080848425974525e-14
	-4.459436612978738e-16
	-7.222845445589799e-13
	7.750328345205628e-07
	1.819589203942911e-04
	4.734430418213455e-05
	4.532081812263414e-01

 108	1.080000000000001e+00
	-2.002911297247317e-14
	-4.660618363455486e-16
	-7.240430523005370e-13
	8.159254392020768e-07
	1.863486270685593e-04
	4.918581312981794e-05
	4.532081878411094e-01

 109	1.090000000000001e+00
	-1.926177674620056e-14
	-4.869877608983837e-16
	-7.257445838531686e-13
	8.595938592287540e-07
	1.907663413792769e-04
	5.107136085272331e-05
	4.532081946140666e-01

 110	1.100000000000001e+00
	-1.850558081312107e-14
	-5.087563856340781e-16
	-7.273933017617730e-13
	9.062799165999455e-07
	1.952097427328843e-04
	5.300121591691961e-05
	4.532082015461779e-01

 111	1.110000000000001e+00
	-1.775970841853632e-14
	-5.314044131541106e-16
	-7.289930139138199e-13
	9.562489005380084e-07
	1.996763907358910e-04
	5.497562308507833e-05
	4.532082086383222e-01

 112	1.120000000000001e+00
	-1.702341373820578e-14
	-5.549703910180299e-16
	-7.305472041322295e-13
	1.009791976092176e-06
	2.041637233410641e-04
	5.699480210923907e-05
	4.532082158912862e-01

 113	1.130000000000001e+00
	-1.629601540819433e-14
	-5.794948103957327e-16
	-7.320590602853398e-13
	1.067228844437831e-06
	2.086690549637478e-04
	5.905894650489372e-05
	4.532082233057695e-01

 114	1.140000000000001e+00
	-1.557689062269803e-14
	-6.050202106819463e-16
	-7.335315000723174e-13
	1.128910679683916e-06
	2.131895745581503e-04
	6.116822230604934e-05
	4.532082308823665e-01

 115	1.150000000000001e+00
	-1.486546975673255e-14
	-6.315912904388451e-16
	-7.349671946413798e-13
	1.195223368817052e-06
	2.177223436415256e-04
	6.332276680079886e-05
	4.532082386215684e-01

 116	1.160000000000001e+00
	-1.416123147234873e-14
	-6.592550250559490e-16
	-7.363685901948754e-13
	1.266591083155324e-06
	2.222642942523797e-04
	6.552268724681944e-05
	4.532082465237640e-01

 117	1.170000000000001e+00
	-1.346369826910593e-14
	-6.880607915413427e-16
	-7.377379277301459e-13
	1.343480211288702e-06
	2.268122268270490e-04
	6.776805956605952e-05
	4.532082545892228e-01

 118	1.180000000000001e+00
	-1.277243244181161e-14
	-7.180605008845739e-16
	-7.390772610586596e-13
	1.426403684835833e-06
	2.313628079774602e-04
	7.005892701771121e-05
	4.532082628181018e-01

 119	1.190000000000001e+00
	-1.208703241083278e-14
	-7.493087384593484e-16
	-7.403884732387695e-13
	1.515925729325565e-06
	2.359125681516585e-04
	7.239529884839125e-05
	4.532082712104344e-01

 120	1.200000000000001e+00
	-1.140712939266379e-14
	-7.818629129640679e-16
	-7.416732915497033e-13
	1.612667072949331e-06
	2.404578991579502e-04
	7.477714891826243e-05
	4.532082797661268e-01

 121	1.210000000000001e+00
	-1.073238438075074e-14
	-8.157834144292262e-16
	-7.429333011265079e-13
	1.717310645614418e-06
	2.449950515334438e-04
	7.720441430163339e-05
	4.532082884849525e-01

 122	1.220000000000001e+00
	-1.006248540883721e-14
	-8.511337818541942e-16
	-7.441699573676777e-13
	1.830607799403192e-06
	2.495201317386435e-04
	7.967699386039027e-05
	4.532082973665472e-01

 123	1.230000000000001e+00
	-9.397145071282096e-15
	-8.879808810706347e-16
	-7.453845972193477e-13
	1.953385078893817e-06
	2.540290991618213e-04
	8.219474678843465e-05
	4.532083064104072e-01

 124	1.240000000000001e+00
	-8.736098276856659e-15
	-9.263950934669002e-16
	-7.465784494322977e-13
	2.086551565431108e-06
	2.585177629205390e-04
	8.475749112516116e-05
	4.532083156158766e-01

 125	1.250000000000001e+00
	-8.079100214508256e-15
	-9.664505162464589e-16
	-7.477526438806418e-13
	2.231106812910387e-06
	2.629817784533037e-04
	8.736500223590233e-05
	4.532083249821500e-01

 126	1.260000000000001e+00
	-7.425924511394621e-15
	-1.008225174934504e-15
	-7.489082200240919e-13
	2.388149383390537e-06
	2.674166439024237e-04
	9.001701125724313e-05
	4.532083345082630e-01

 127	1.270000000000001e+00
	-6.776361565222514e-15
	-1.051801248889544e-15
	-7.500461345890331e-13
	2.558885978299624e-06
	2.718176963001970e-04
	9.271320350516401e-05
	4.532083441930809e-01

 128	1.280000000000001e+00
	-6.130217034515580e-15
	-1.097265310621778e-15
	-7.511672685374167e-13
	2.744641144396222e-06
	2.761801075852684e-04
	9.545321684416643e-05
	4.532083540353066e-01

 129	1.290000000000001e+00
	-5.487310471902149e-15
	-1.144708579767207e-15
	-7.522724333866455e-13
	2.946867512281913e-06
	2.804988804949594e-04
	9.823664001589626e-05
	4.532083640334629e-01

 130	1.300000000000001e+00
	-4.847474086888611e-15
	-1.194227192615227e-15
	-7.533623769381664e-13
	3.167156498271118e-06
	2.847688444032997e-04
	1.010630109263483e-04
	4.532083741858872e-01

 131	1.310000000000001e+00
	-4.210551625827082e-15
	-1.245922488138252e-15
	-7.544377884674461e-13
	3.407249367011598e-06
	2.889846512040936e-04
	1.039318148915793e-04
	4.532083844907334e-01

 132	1.320000000000001e+00
	-3.576397357929904e-15
	-1.299901311525253e-15
	-7.554993034233317e-13
	3.669048511646196e-06
	2.931407713741960e-04
	1.068424828430237e-04
	4.532083949459539e-01

 133	1.330000000000001e+00
	-2.944875157251732e-15
	-1.356276336274986e-15
	-7.565475076804533e-13
	3.954628759843219e-06
	2.972314903947899e-04
	1.097943894950630e-04
	4.532084055493083e-01

 134	1.340000000000001e+00
	-2.315857671495206e-15
	-1.415166405961525e-15
	-7.575829413843941e-13
	4.266248457344142e-06
	3.012509057580628e-04
	1.127868514795243e-04
	4.532084162983371e-01

 135	1.350000000000001e+00
	-1.689225569403510e-15
	-1.476696896841650e-15
	-7.586061024256328e-13
	4.606360015741797e-06
	3.051929248431349e-04
	1.158191254543281e-04
	4.532084271903725e-01

 136	1.360000000000001e+00
	-1.064866859272602e-15
	-1.541000102532638e-15
	-7.596174495749762e-13
	4.977619538640018e-06
	3.090512640077326e-04
	1.188904061966582e-04
	4.532084382225191e-01

 137	1.370000000000001e+00
	-4.426762718701386e-16
	-1.608215642048317e-15
	-7.606174053100527e-13
	5.382895061502173e-06
	3.128194493094880e-04
	1.219998246948198e-04
	4.532084493916599e-01

 138	1.380000000000001e+00
	1.774452983197845e-16
	-1.678490892540662e-15
	-7.616063583596946e-13
	5.825272857838997e-06
	3.164908193405908e-04
	1.251464462574497e-04
	4.532084606944342e-01

 139	1.390000000000001e+00
	7.955912989676546e-16
	-1.751981448153717e-15
	-7.625846659903810e-13
	6.308061181653481e-06
	3.200585307281733e-04
	1.283292686639077e-04
	4.532084721272429e-01

 140	1.400000000000001e+00
	1.411849977819451e-15
	-1.828851606455154e-15
	-7.635526560566304e-13
	6.834790738528274e-06
	3.235155669155924e-04
	1.315472203855414e-04
	4.532084836862357e-01

 141	1.410000000000001e+00
	2.026304797075460e-15
	-1.909274883967377e-15
	-7.645106288350428e-13
	7.409211112404782e-06
	3.268547508902016e-04
	1.347991589139255e-04
	4.532084953673133e-01

 142	1.420000000000001e+00
	2.639034808207699e-15
	-1.993434562374208e-15
	-7.654588586597536e-13
	8.035282330672276e-06
	3.300687625535896e-04
	1.380838692390044e-04
	4.532085071661059e-01

 143	1.430000000000001e+00
	3.250114990760454e-15
	-2.081524267029341e-15
	-7.663975953752440e-13
	8.717160736950481e-06
	3.331501614315086e-04
	1.414000625270615e-04
	4.532085190779864e-01

 144	1.440000000000001e+00
	3.859616558339658e-15
	-2.173748579438279e-15
	-7.673270656208777e-13
	9.459178370289159e-06
	3.360914153829563e-04
	1.447463750552600e-04
	4.532085310980551e-01

 145	1.450000000000001e+00
	4.467607234630395e-15
	-2.270323685423338e-15
	-7.682474739599981e-13
	1.026581513312364e-05
	3.388849358811293e-04
	1.481213674657124e-04
	4.532085432211431e-01

 146	1.460000000000001e+00
	5.074151501993557e-15
	-2.371478060712146e-15
	-7.691590038651065e-13
	1.114166317896421e-05
	3.415231202942655e-04
	1.515235244070688e-04
	4.532085554418075e-01

 147	1.470000000000001e+00
	5.679310824907600e-15
	-2.477453195708219e-15
	-7.700618185694164e-13
	1.209138317267879e-05
	3.439984013853716e-04
	1.549512546349399e-04
	4.532085677543307e-01

 148	1.480000000000001e+00
	6.283143850263183e-15
	-2.588504361210053e-15
	-7.709560617939453e-13
	1.311965237510592e-05
	3.463033039739687e-04
	1.584028916432965e-04
	4.532085801527280e-01

 149	1.490000000000001e+00
	6.885706586301354e-15
	-2.704901416834080e-15
	-7.718418583583287e-13
	1.423110487681174e-05
	3.484305083640744e-04
	1.618766948968076e-04
	4.532085926307470e-01

 150	1.500000000000001e+00
	7.487052561758985e-15
	-2.826929663869319e-15
	-7.727193146826143e-13
	1.543026474192971e-05
	3.503729197514868e-04
	1.653708517281830e-04
	4.532086051818758e-01

 151	1.510000000000001e+00
	8.087232966606098e-15
	-2.954890744239296e-15
	-7.735885191864766e-13
	1.672147330137089e-05
	3.521237423996141e-04
	1.688834799546172e-04
	4.532086177993541e-01

 152	1.520000000000001e+00
	8.686296775579009e-15
	-3.089103587168880e-15
	-7.744495425915695e-13
	1.810881232460200e-05
	3.536765569444064e-04
	1.724126312531774e-04
	4.532086304761836e-01

 153	1.530000000000001e+00
	9.284290855554169e-15
	-3.229905405042847e-15
	-7.753024381320570e-13
	1.959602526136129e-05
	3.550253987905218e-04
	1.759562953165426e-04