Title: **.subckt gm_id_pmos
Date: Sat Jun 12 17:32:09  2021
Plotname: DC transfer characteristic
Flags: real
No. Variables: 8
No. Points: 181
Variables:
	0	v(v-sweep)	voltage
	1	@m.xm1.msky130_fd_pr__pfet_01v8_lvt[cgb]	capacitance
	2	@m.xm1.msky130_fd_pr__pfet_01v8_lvt[cgd]	capacitance
	3	@m.xm1.msky130_fd_pr__pfet_01v8_lvt[cgs]	capacitance
	4	@m.xm1.msky130_fd_pr__pfet_01v8_lvt[gds]	admittance
	5	@m.xm1.msky130_fd_pr__pfet_01v8_lvt[gm]	admittance
	6	i(@m.xm1.msky130_fd_pr__pfet_01v8_lvt[id])	current
	7	v(@m.xm1.msky130_fd_pr__pfet_01v8_lvt[vth])	voltage
Values:
 0	0.000000000000000e+00
	-1.266240073651000e-15
	-3.236652670586527e-21
	-5.445403234660047e-17
	3.546000488828226e-09
	9.203688884341253e-08
	3.953141412199626e-09
	2.897319923240360e-01

 1	1.000000000000000e-02
	-1.259569970422486e-15
	-3.530217261925970e-21
	-5.912366409163455e-17
	4.470507580560958e-09
	1.151689633545638e-07
	4.985072824610640e-09
	2.897319923656396e-01

 2	2.000000000000000e-02
	-1.252871485547118e-15
	-3.850803073322580e-21
	-6.424763611850856e-17
	5.625127875760375e-09
	1.437291926399851e-07
	6.274595526115322e-09
	2.897319924176304e-01

 3	3.000000000000000e-02
	-1.246133078097708e-15
	-4.201019814027612e-21
	-6.987313768332271e-17
	7.062904480782314e-09
	1.788504838252294e-07
	7.881505803341744e-09
	2.897319924824155e-01

 4	4.000000000000000e-02
	-1.239342350465549e-15
	-4.583738562918133e-21
	-7.605187864103916e-17
	8.847548198745312e-09
	2.218544493053830e-07
	9.877857775251137e-09
	2.897319925629000e-01

 5	5.000000000000000e-02
	-1.232485993516981e-15
	-5.002116642726885e-21
	-8.284040988187016e-17
	1.105504404671753e-08
	2.742681733408954e-07
	1.234993597459083e-08
	2.897319926625657e-01

 6	6.000000000000000e-02
	-1.225549732302134e-15
	-5.459624454821144e-21
	-9.030044995595970e-17
	1.377532545097917e-08
	3.378384036975247e-07
	1.540038361775324e-08
	2.897319927855486e-01

 7	7.000000000000001e-02
	-1.218518273247301e-15
	-5.960074370234790e-21
	-9.849921401909373e-17
	1.711396142312435e-08
	4.145421084359107e-07
	1.915045546995937e-08
	2.897319929367383e-01

 8	8.000000000000000e-02
	-1.211375254082550e-15
	-6.507651766023772e-21
	-1.075097397340283e-16
	2.119378566963370e-08
	5.065924603159808e-07
	2.374235410674208e-08
	2.897319931218681e-01

 9	9.000000000000000e-02
	-1.204103198158638e-15
	-7.106948285076114e-21
	-1.174112028587921e-16
	2.615638138640251e-08
	6.164395828285900e-07
	2.934160022792980e-08
	2.897319933476102e-01

 10	9.999999999999999e-02
	-1.196683475300439e-15
	-7.762997380936389e-21
	-1.282892128943767e-16
	3.216332343950278e-08
	7.467658078792730e-07
	3.613938299079187e-08
	2.897319936216731e-01

 11	1.100000000000000e-01
	-1.189096271930833e-15
	-8.481312185467566e-21
	-1.402360763149732e-16
	3.939707288988410e-08
	9.004757153604658e-07
	4.435483637084994e-08
	2.897319939528920e-01

 12	1.200000000000000e-01
	-1.181320573876275e-15
	-9.267925704540780e-21
	-1.533510115548506e-16
	4.806141934441949e-08
	1.080681768761852e-06
	5.423719300465059e-08
	2.897319943513138e-01

 13	1.300000000000000e-01
	-1.173334166020980e-15
	-1.012943330354604e-20
	-1.677402961042737e-16
	5.838137575576034e-08
	1.290686813361844e-06
	6.606777750277822e-08
	2.897319948282820e-01

 14	1.400000000000000e-01
	-1.165113653787801e-15
	-1.107303738842971e-20
	-1.835173218485397e-16
	7.060244838031833e-08
	1.533964932973490e-06
	8.016181527344547e-08
	2.897319953965040e-01

 15	1.500000000000000e-01
	-1.156634512253040e-15
	-1.210659411730797e-20
	-2.008025303086822e-16
	8.498923069436738e-08
	1.814142050638325e-06
	9.687004762516916e-08
	2.897319960701210e-01

 16	1.600000000000000e-01
	-1.147871169496534e-15
	-1.323866189083228e-20
	-2.197231949271161e-16
	1.018233019457886e-07
	2.134977142302991e-06
	1.165801555344990e-07
	2.897319968647645e-01

 17	1.700000000000000e-01
	-1.138797131474992e-15
	-1.447855126514704e-20
	-2.404130132962024e-16
	1.214004455153970e-07
	2.500344028819763e-06
	1.397179989252459e-07
	2.897319977976003e-01

 18	1.800000000000000e-01
	-1.129385156193991e-15
	-1.583637580890082e-20
	-2.630114686659443e-16
	1.440272358719451e-07
	2.914212540503109e-06
	1.667486722496733e-07
	2.897319988873825e-01

 19	1.900000000000000e-01
	-1.119607485130564e-15
	-1.732310328577792e-20
	-2.876629177125293e-16
	1.700170725479964e-07
	3.380626623992831e-06
	1.981773589180001e-07
	2.897320001544771e-01

 20	2.000000000000000e-01
	-1.109436139595003e-15
	-1.895060638807575e-20
	-3.145153610298347e-16
	1.996857632670218e-07
	3.903675957343254e-06
	2.345499374966151e-07
	2.897320016208929e-01

 21	2.100000000000000e-01
	-1.098843288877765e-15
	-2.073171207843447e-20
	-3.437188548358522e-16
	2.333467756280952e-07
	4.487457135499512e-06
	2.764532552133363e-07
	2.897320033102875e-01

 22	2.200000000000001e-01
	-1.087801695464393e-15
	-2.268024842133925e-20
	-3.754235277231467e-16
	2.713062885156723e-07
	5.136020707183248e-06
	3.245149453553251e-07
	2.897320052479677e-01

 23	2.300000000000001e-01
	-1.076285240192684e-15
	-2.481108761136576e-20
	-4.097771756651889e-16
	3.138581824165110e-07
	5.853301396592721e-06
	3.794026325144547e-07
	2.897320074608463e-01

 24	2.400000000000001e-01
	-1.064269526880931e-15
	-2.714018374170457e-20
	-4.469224225415581e-16
	3.612791138768112e-07
	6.643030693525951e-06
	4.418223516118290e-07
	2.897320099773921e-01

 25	2.500000000000001e-01
	-1.051732561643938e-15
	-2.968460371740968e-20
	-4.869934525560508e-16
	4.138238243682160e-07
	7.508633453146250e-06
	5.125160103702162e-07
	2.897320128275125e-01

 26	2.600000000000001e-01
	-1.038655496890499e-15
	-3.246254961833023e-20
	-5.301123451103567e-16
	4.717208373957907e-07
	8.453112886217233e-06
	5.922577549423542e-07
	2.897320160424211e-01

 27	2.700000000000001e-01
	-1.025023424031353e-15
	-3.549337077398613e-20
	-5.763850714719561e-16
	5.351686978582675e-07
	9.478930926782287e-06
	6.818491555407060e-07
	2.897320196544331e-01

 28	2.800000000000001e-01
	-1.010826192519988e-15
	-3.879756384434754e-20
	-6.258972448092610e-16
	6.043329015587293e-07
	1.058789299565118e-05
	7.821132095964458e-07
	2.897320236967282e-01

 29	2.900000000000001e-01
	-9.960592264386370e-16
	-4.239675932341337e-20
	-6.787097490262474e-16
	6.793436473819805e-07
	1.178104724351589e-05
	8.938872564278087e-07
	2.897320282030666e-01

 30	3.000000000000001e-01
	-9.807243039930306e-16
	-4.631369311065707e-20
	-7.348544047698773e-16
	7.602945179727228e-07
	1.305860819169426e-05
	1.018014998497701e-06
	2.897320332074630e-01

 31	3.100000000000001e-01
	-9.648302606497339e-16
	-5.057216213768668e-20
	-7.943298598696424e-16
	8.472421565536759e-07
	1.441991321289891e-05
	1.155337917209373e-06
	2.897320387438421e-01

 32	3.200000000000001e-01
	-9.483935739303028e-16
	-5.519696349563611e-20
	-8.570979127997352e-16
	9.402069598316625e-07
	1.586341764741873e-05
	1.306686443238754e-06
	2.897320448456845e-01

 33	3.300000000000001e-01
	-9.314387877121269e-16
	-6.021381707509767e-20
	-9.230804880227954e-16
	1.039174753839257e-06
	1.738673087415595e-05
	1.472871282477821e-06
	2.897320515456752e-01

 34	3.400000000000001e-01
	-9.139987367799480e-16
	-6.564927238660776e-20
	-9.921574782160037e-16
	1.144099366515641e-06
	1.898669183995004e-05
	1.654675302833058e-06
	2.897320588753776e-01

 35	3.500000000000001e-01
	-8.961145385909584e-16
	-7.153060094637964e-20
	-1.064165648268909e-15
	1.254905963655238e-06
	2.065947893775615e-05
	1.852846353701027e-06
	2.897320668649402e-01

 36	3.600000000000002e-01
	-8.778353287078282e-16
	-7.788567634949404e-20
	-1.138898758848255e-15
	1.371494978612006e-06
	2.240074620768052e-05
	2.068091323509404e-06
	2.897320755428628e-01

 37	3.700000000000002e-01
	-8.592177286996336e-16
	-8.474284486375395e-20
	-1.216109014256564e-15
	1.493746444281308e-06
	2.420577596724679e-05
	2.301071650140596e-06
	2.897320849358127e-01

 38	3.800000000000002e-01
	-8.403250497240670e-16
	-9.213079001010404e-20
	-1.295509873150189e-15
	1.621524529723670e-06
	2.606963731622763e-05
	2.552400395796245e-06
	2.897320950685082e-01

 39	3.900000000000002e-01
	-8.212262503862184e-16
	-1.000783950990143e-19
	-1.376780186060923e-15
	1.754682092558634e-06
	2.798734046163645e-05
	2.822640893914631e-06
	2.897321059636577e-01

 40	4.000000000000002e-01
	-8.019946825142608e-16
	-1.086146080214266e-19
	-1.459569546562725e-15
	1.893065079416981e-06
	2.995397825689009e-05
	3.112306881782563e-06
	2.897321176419748e-01

 41	4.100000000000002e-01
	-7.827066718391198e-16
	-1.177683127140743e-19
	-1.543504670027674e-15
	2.036516636667080e-06
	3.196484842822600e-05
	3.421863956440904e-06
	2.897321301222303e-01

 42	4.200000000000002e-01
	-7.634399909645702e-16
	-1.275682116137838e-19
	-1.628196551814168e-15
	2.184880828297804e-06
	3.401555232158811e-05
	3.751732137922040e-06
	2.897321434213573e-01

 43	4.300000000000002e-01
	-7.442722884910597e-16
	-1.380427230838465e-19
	-1.713248111098618e-15
	2.338005893448415e-06
	3.610206832606036e-05
	4.102289293951652e-06
	2.897321575545916e-01

 44	4.400000000000002e-01
	-7.252795401362362e-16
	-1.492198972566437e-19
	-1.798262001425973e-15
	2.495747009502007e-06
	3.822080017126774e-05
	4.473875172329241e-06
	2.897321725356296e-01

 45	4.500000000000002e-01
	-7.065345850738520e-16
	-1.611273530262906e-19
	-1.882848266301989e-15
	2.657968555687216e-06
	4.036860190462968e-05
	4.866795797617403e-06
	2.897321883768074e-01

 46	4.600000000000002e-01
	-6.881058038596807e-16
	-1.737922380933081e-19
	-1.966631537342703e-15
	2.824545895499813e-06
	4.254278246928546e-05
	5.281328012820720e-06
	2.897322050892909e-01

 47	4.700000000000003e-01
	-6.700559840069713e-16
	-1.872412130681118e-19
	-2.049257511011776e-15
	2.995366713538268e-06
	4.474109343830430e-05
	5.717723979498286e-06
	2.897322226832414e-01

 48	4.800000000000003e-01
	-6.524414065865572e-16
	-2.015004597419904e-19
	-2.130398493443321e-15
	3.170331953780745e-06
	4.696170367954437e-05
	6.176215486713012e-06
	2.897322411680051e-01

 49	4.900000000000003e-01
	-6.353111733744928e-16
	-2.165957127907055e-19
	-2.209757865792606e-15
	3.349356412596228e-06
	4.920316461940414e-05
	6.657017956666678e-06
	2.897322605522679e-01

 50	5.000000000000002e-01
	-6.187067802627466e-16
	-2.325523134345651e-19
	-2.287073389120793e-15
	3.532369041796006e-06
	5.146436944096428e-05
	7.160334070036490e-06
	2.897322808442015e-01

 51	5.100000000000002e-01
	-6.026619299533983e-16
	-2.493952829766191e-19
	-2.362119332464564e-15
	3.719313015790770e-06
	5.374450908396145e-05
	7.686356965121061e-06
	2.897323020515900e-01

 52	5.200000000000002e-01
	-5.872025662013477e-16
	-2.671494136987287e-19
	-2.434707465807918e-15
	3.910145613378711e-06
	5.604302738676724e-05
	8.235272990964888e-06
	2.897323241819490e-01

 53	5.300000000000002e-01
	-5.723471035882609e-16
	-2.858393743214439e-19
	-2.504687007754052e-15
	4.104837959690077e-06
	5.835957718160082e-05
	8.807264015370883e-06
	2.897323472426074e-01

 54	5.400000000000003e-01
	-5.581068212330891e-16
	-3.054898271219326e-19
	-2.571943653789025e-15
	4.303374668041779e-06
	6.069397866281002e-05
	9.402509304318262e-06
	2.897323712407962e-01

 55	5.500000000000003e-01
	-5.444863859303464e-16
	-3.261255538387322e-19
	-2.636397834504763e-15
	4.505753415446541e-06
	6.304618091753304e-05
	1.002118700029787e-05
	2.897323961836935e-01

 56	5.600000000000003e-01
	-5.314844696988548e-16
	-3.477715876488542e-19
	-2.698002364543035e-15
	4.711984479650310e-06
	6.541622714895871e-05
	1.066347523410590e-05
	2.897324220784825e-01

 57	5.700000000000003e-01
	-5.190944282145170e-16
	-3.704533487542872e-19
	-2.756739643762629e-15
	4.922090260100869e-06
	6.780422383629357e-05
	1.132955290845530e-05
	2.897324489323774e-01

 58	5.800000000000003e-01
	-5.073050096079232e-16
	-3.941967814319678e-19
	-2.812618564202170e-15
	5.136104800323209e-06
	7.021031385777930e-05
	1.201960019305799e-05
	2.897324767526391e-01

 59	5.900000000000003e-01
	-4.961010671324903e-16
	-4.190284907564913e-19
	-2.865671262052140e-15
	5.354073324868941e-06
	7.263465344571886e-05
	1.273379877026204e-05
	2.897325055465926e-01

 60	6.000000000000003e-01
	-4.854642537866320e-16
	-4.449758775736216e-19
	-2.915949835290576e-15
	5.576051800329792e-06
	7.507739273585794e-05
	1.347233186844622e-05
	2.897325353216262e-01

 61	6.100000000000003e-01
	-4.753736817056287e-16
	-4.720672706647924e-19
	-2.963523126905742e-15
	5.802106526835519e-06
	7.753865960786650e-05
	1.423538411764055e-05
	2.897325660851822e-01

 62	6.200000000000003e-01
	-4.658065337108224e-16
	-5.003320553833144e-19
	-3.008473652428214e-15
	6.032313763943965e-06
	8.001854647987069e-05
	1.502314125861389e-05
	2.897325978447488e-01

 63	6.300000000000003e-01
	-4.567386185890937e-16
	-5.298007983502905e-19
	-3.050894730144871e-15
	6.266759392817785e-06
	8.251709970995927e-05
	1.583578973323581e-05
	2.897326306078424e-01

 64	6.400000000000003e-01
	-4.481448653312886e-16
	-5.605053680672628e-19
	-3.090887853799782e-15
	6.505538614998650e-06
	8.503431126446727e-05
	1.667351618046879e-05
	2.897326643819881e-01

 65	6.500000000000004e-01
	-4.399997546127522e-16
	-5.924790515289537e-19
	-3.128560331379646e-15
	6.748755686873705e-06
	8.757011233113947e-05
	1.753650685903085e-05
	2.897326991746939e-01

 66	6.600000000000004e-01
	-4.322776882382393e-16
	-6.257566671047448e-19
	-3.164023200009700e-15
	6.996523688017142e-06
	9.012436858064506e-05
	1.842494701467160e-05
	2.897327349934291e-01

 67	6.700000000000004e-01
	-4.249532991251723e-16
	-6.603746741029942e-19
	-3.197389416089638e-15
	7.248964320927505e-06
	9.269687680907326e-05
	1.933902020718236e-05
	2.897327718455935e-01

 68	6.800000000000004e-01
	-4.180017057190118e-16
	-6.963712795420574e-19
	-3.228772311446575e-15
	7.506207739220591e-06
	9.528736272460525e-05
	2.027890760974099e-05
	2.897328097384892e-01

 69	6.900000000000004e-01
	-4.113987155944207e-16
	-7.337865427303386e-19
	-3.258284300228926e-15
	7.768392401036255e-06
	9.789547967181707e-05
	2.124478729097446e-05
	2.897328486792989e-01

 70	7.000000000000004e-01
	-4.051209834736113e-16
	-7.726624783098898e-19
	-3.286035817204792e-15
	8.035664944241602e-06
	1.005208081159255e-04
	2.223683348820628e-05
	2.897328886750432e-01

 71	7.100000000000004e-01
	-3.991461290663741e-16
	-8.130431584483583e-19
	-3.312134465729406e-15
	8.308180079931180e-06
	1.031628557360043e-04
	2.325521587870745e-05
	2.897329297325635e-01

 72	7.200000000000004e-01
	-3.934528200763807e-16
	-8.549748148777950e-19
	-3.336684352582783e-15
	8.586100500719423e-06
	1.058210580004534e-04
	2.430009885439284e-05
	2.897329718584881e-01

 73	7.300000000000004e-01
	-3.880208254893231e-16
	-8.985059414793645e-19
	-3.359785586846165e-15
	8.869596800365375e-06
	1.084947791195694e-04
	2.537164080423894e-05
	2.897330150592016e-01

 74	7.400000000000004e-01
	-3.828310439141931e-16
	-9.436873981045523e-19
	-3.381533920715975e-15
	9.158847401357526e-06
	1.111833132890221e-04
	2.646999340774934e-05
	2.897330593408192e-01

 75	7.500000000000004e-01
	-3.778655113338380e-16
	-9.905725163088802e-19
	-3.402020511416544e-15
	9.454038487201793e-06
	1.138858861544520e-04
	2.759530094201677e-05
	2.897331047091574e-01

 76	7.600000000000005e-01
	-3.731073921698167e-16
	-1.039217207655684e-18
	-3.421331784978571e-15
	9.755363936289851e-06
	1.166016564414539e-04
	2.874769960430035e-05
	2.897331511697050e-01

 77	7.700000000000005e-01
	-3.685409571061218e-16
	-1.089680075228342e-18
	-3.439549384448564e-15
	1.006302525437527e-05
	1.193297177071297e-04
	2.992731685154653e-05
	2.897331987276023e-01

 78	7.800000000000005e-01
	-3.641515506658703e-16
	-1.142022528969266e-18
	-3.456750186968467e-15
	1.037723150284210e-05
	1.220691001793758e-04
	3.113427075789067e-05
	2.897332473876092e-01

 79	7.900000000000005e-01
	-3.599255511080564e-16
	-1.196308905446354e-18
	-3.473006376028567e-15
	1.069819922011526e-05
	1.248187726583658e-04
	3.236866939088362e-05
	2.897332971540809e-01

 80	8.000000000000005e-01
	-3.558503248163950e-16
	-1.252606592631267e-18
	-3.488385556988906e-15
	1.102615233372985e-05
	1.275776444614939e-04
	3.363061020696490e-05
	2.897333480309469e-01

 81	8.100000000000005e-01
	-3.519141769940265e-16
	-1.310986160261460e-18
	-3.502950905644305e-15
	1.136132206074792e-05
	1.303445673985816e-04
	3.492017946654905e-05
	2.897334000216832e-01

 82	8.200000000000005e-01
	-3.481063001583448e-16
	-1.371521496347864e-18
	-3.516761341150575e-15
	1.170394679438352e-05
	1.331183377685739e-04
	3.623745166897870e-05
	2.897334531292935e-01

 83	8.300000000000005e-01
	-3.444167216494115e-16
	-1.434289950384811e-18
	-3.529871716022390e-15
	1.205427197487102e-05
	1.358976983724496e-04
	3.758248900753036e-05
	2.897335073562862e-01

 84	8.400000000000005e-01
	-3.408362511217619e-16
	-1.499372483816254e-18
	-3.542333017153005e-15
	1.241254994278876e-05
	1.386813405397913e-04
	3.895534084462194e-05
	2.897335627046496e-01

 85	8.500000000000005e-01
	-3.373564287805452e-16
	-1.566853828314360e-18
	-3.554192572895672e-15
	1.277903977322607e-05
	1.414679061684908e-04
	4.035604320735180e-05
	2.897336191758356e-01

 86	8.600000000000005e-01
	-3.339694749458458e-16
	-1.636822652432262e-18
	-3.565494262193725e-15
	1.315400708936295e-05
	1.442559897785848e-04
	4.178461830350635e-05
	2.897336767707408e-01

 87	8.700000000000006e-01
	-3.306682413804473e-16
	-1.709371737202218e-18
	-3.576278722561207e-15
	1.353772385421211e-05
	1.470441405822433e-04
	4.324107405818655e-05
	2.897337354896810e-01

 88	8.800000000000006e-01
	-3.274461646931372e-16
	-1.784598161263547e-18
	-3.586583554409974e-15
	1.393046813945736e-05
	1.498308645726153e-04
	4.472540367122672e-05
	2.897337953323833e-01

 89	8.900000000000006e-01
	-3.242972220283577e-16
	-1.862603496122002e-18
	-3.596443519805587e-15
	1.433252387050846e-05
	1.526146266345952e-04
	4.623758519561049e-05
	2.897338562979625e-01

 90	9.000000000000006e-01
	-3.212158891710650e-16
	-1.943494012162345e-18
	-3.605890734224361e-15
	1.474418054708032e-05
	1.553938526806975e-04
	4.777758113711845e-05
	2.897339183849066e-01

 91	9.100000000000006e-01
	-3.181971011298311e-16
	-2.027380896060564e-18
	-3.614954850290496e-15
	1.516573293879488e-05
	1.581669318151534e-04
	4.934533807547361e-05
	2.897339815910603e-01

 92	9.200000000000006e-01
	-3.152362152093730e-16
	-2.114380480268919e-18
	-3.623663232805790e-15
	1.559748075549526e-05
	1.609322185291159e-04
	5.094078630728184e-05
	2.897340459136143e-01

 93	9.300000000000006e-01
	-3.123289765433924e-16
	-2.204614485279057e-18
	-3.632041124655541e-15
	1.603972829215497e-05
	1.636880349295134e-04
	5.256383951109200e-05
	2.897341113490858e-01

 94	9.400000000000006e-01
	-3.094714860280384e-16
	-2.298210275401875e-18
	-3.640111803391868e-15
	1.649278404845661e-05
	1.664326730036574e-04
	5.421439443492067e-05
	2.897341778933137e-01

 95	9.500000000000006e-01
	-3.066601705736069e-16
	-2.395301128841339e-18
	-3.647896728468515e-15
	1.695696032330878e-05
	1.691643969212182e-04
	5.589233060661066e-05
	2.897342455414383e-01

 96	9.600000000000006e-01
	-3.038917555761146e-16
	-2.496026522880182e-18
	-3.655415679235657e-15
	1.743257278475841e-05
	1.718814453746336e-04
	5.759751006739921e-05
	2.897343142878990e-01

 97	9.700000000000006e-01
	-3.011632394994186e-16
	-2.600532435040742e-18
	-3.662686883906655e-15
	1.791994001594617e-05
	1.745820339584581e-04
	5.932977712908606e-05
	2.897343841264163e-01

 98	9.800000000000006e-01
	-2.984718704521245e-16
	-2.708971661131518e-18
	-3.669727139785459e-15
	1.841938303793508e-05
	1.772643575875765e-04
	6.108895815518780e-05
	2.897344550499934e-01

 99	9.900000000000007e-01
	-2.958151246401779e-16
	-2.821504151142766e-18
	-3.676551925099206e-15
	1.893122481042316e-05
	1.799265929536344e-04
	6.287486136646754e-05
	2.897345270508922e-01

 100	1.000000000000001e+00
	-2.931906865755250e-16
	-2.938297364008786e-18
	-3.683175502818340e-15
	1.945578971152237e-05
	1.825669010184666e-04
	6.468727667121162e-05
	2.897346001206462e-01

 101	1.010000000000001e+00
	-2.905964309225707e-16
	-3.059526642314931e-18
	-3.689611016870946e-15
	1.999340299795232e-05
	1.851834295427609e-04
	6.652597552062057e-05
	2.897346742500392e-01

 102	1.020000000000001e+00
	-2.880304058671340e-16
	-3.185375608088963e-18
	-3.695870581170432e-15
	2.054439024715139e-05
	1.877743156476704e-04
	6.839071078965050e-05
	2.897347494291063e-01

 103	1.030000000000001e+00
	-2.854908178966401e-16
	-3.316036580884603e-18
	-3.701965361879697e-15
	2.110907678295336e-05
	1.903376884065910e-04
	7.028121668362252e-05
	2.897348256471329e-01

 104	1.040000000000001e+00
	-2.829760178850367e-16
	-3.451711019435339e-18
	-3.707905653331961e-15
	2.168778708661090e-05
	1.928716714638715e-04
	7.219720867088737e-05
	2.897349028926459e-01

 105	1.050000000000001e+00
	-2.804844883813798e-16
	-3.592609988232542e-18
	-3.713700948019804e-15
	2.228084419506533e-05
	1.953743856767905e-04
	7.413838344179325e-05
	2.897349811534163e-01

 106	1.060000000000001e+00
	-2.780148320065433e-16
	-3.738954650460837e-18
	-3.719360001051988e-15
	2.288856908846824e-05
	1.978439517767675e-04
	7.610441889417225e-05
	2.897350604164586e-01

 107	1.070000000000001e+00
	-2.755657608684055e-16
	-3.890976788809049e-18
	-3.724890889462216e-15
	2.351128006904872e-05
	2.002784930454258e-04
	7.809497414551407e-05
	2.897351406680285e-01

 108	1.080000000000001e+00
	-2.731360869115948e-16
	-4.048919355763110e-18
	-3.730301066736988e-15
	2.414929213349313e-05
	2.026761380008372e-04
	8.010968957195344e-05
	2.897352218936259e-01

 109	1.090000000000001e+00
	-2.707247131236357e-16
	-4.213037055081545e-18
	-3.735597412911161e-15
	2.480291634105915e-05
	2.050350230890198e-04
	8.214818687414740e-05
	2.897353040780004e-01

 110	1.100000000000001e+00
	-2.683306255249136e-16
	-4.383596956253274e-18
	-3.740786280560774e-15
	2.547245917968354e-05
	2.073532953755596e-04
	8.421006917007069e-05
	2.897353872051497e-01

 111	1.110000000000001e+00
	-2.659528858752307e-16
	-4.560879143841192e-18
	-3.745873537003201e-15
	2.615822193236045e-05
	2.096291152320501e-04
	8.629492111470125e-05
	2.897354712583273e-01

 112	1.120000000000001e+00
	-2.635906250348510e-16
	-4.745177403724257e-18
	-3.750864602995397e-15
	2.686050004606985e-05
	2.118606590119332e-04
	8.840230904652111e-05
	2.897355562200488e-01

 113	1.130000000000001e+00
	-2.612430369228387e-16
	-4.936799948366416e-18
	-3.755764488201907e-15
	2.757958250551370e-05
	2.140461217102305e-04
	9.053178116069282e-05
	2.897356420721016e-01

 114	1.140000000000001e+00
	-2.589093730200067e-16
	-5.136070183360052e-18
	-3.760577823685959e-15
	2.831575121388436e-05
	2.161837196016241e-04
	9.268286770873118e-05
	2.897357287955435e-01

 115	1.150000000000001e+00
	-2.565889373682053e-16
	-5.343327517617850e-18
	-3.765308891658911e-15
	2.906928038283115e-05
	2.182716928513252e-04
	9.485508122441566e-05
	2.897358163707218e-01

 116	1.160000000000001e+00
	-2.542810820215969e-16
	-5.558928219719470e-18
	-3.769961652706531e-15
	2.984043593372216e-05
	2.203083080932174e-04
	9.704791677565247e-05
	2.897359047772803e-01

 117	1.170000000000001e+00
	-2.519852029093834e-16
	-5.783246323055081e-18
	-3.774539770694179e-15
	3.062947491220654e-05
	2.222918609698121e-04
	9.926085224192537e-05
	2.897359939941681e-01

 118	1.180000000000001e+00
	-2.497007360729100e-16
	-6.016674582552298e-18
	-3.779046635537678e-15
	3.143664491798135e-05
	2.242206786286591e-04
	1.014933486169304e-04
	2.897360839996524e-01

 119	1.190000000000001e+00
	-2.474271542432764e-16
	-6.259625485920492e-18
	-3.783485384012212e-15
	3.226218355154597e-05
	2.260931221699760e-04
	1.037448503359299e-04
	2.897361747713353e-01

 120	1.200000000000001e+00
	-2.451639637285861e-16
	-6.512532322500252e-18
	-3.787858918757988e-15
	3.310631787959789e-05
	2.279075890404134e-04
	1.060147856273143e-04
	2.897362662861661e-01

 121	1.210000000000001e+00
	-2.429107015826464e-16
	-6.775850312965686e-18
	-3.792169925628721e-15
	3.396926392058013e-05
	2.296625153680501e-04
	1.083025668878075e-04
	2.897363585204529e-01

 122	1.220000000000001e+00
	-2.406669330295594e-16
	-7.050057803288615e-18
	-3.796420889517074e-15
	3.485122615173843e-05
	2.313563782339068e-04
	1.106075910807029e-04
	2.897364514498829e-01

 123	1.230000000000001e+00
	-2.384322491208206e-16
	-7.335657526544791e-18
	-3.800614108780238e-15
	3.575239703888715e-05
	2.329876978754878e-04
	1.129292401564760e-04
	2.897365450495406e-01

 124	1.240000000000001e+00
	-2.362062646037913e-16
	-7.633177936311021e-18
	-3.804751708378475e-15
	3.667295658991619e-05
	2.345550398180879e-04
	1.152668814950691e-04
	2.897366392939171e-01

 125	1.250000000000001e+00
	-2.339886159822485e-16
	-7.943174615576927e-18
	-3.808835651830035e-15
	3.761307193290039e-05
	2.360570169298517e-04
	1.176198683691068e-04
	2.897367341569408e-01

 126	1.260000000000001e+00
	-2.317789597515997e-16
	-8.266231765274909e-18
	-3.812867752076891e-15
	3.857289691950273e-05
	2.374922913968284e-04
	1.199875404272594e-04
	2.897368296119888e-01

 127	1.270000000000001e+00
	-2.295769707928610e-16
	-8.602963776702940e-18
	-3.816849681347793e-15
	3.955257175418754e-05
	2.388595766145352e-04
	1.223692241969406e-04
	2.897369256319099e-01

 128	1.280000000000001e+00
	-2.273823409110954e-16
	-8.954016892298862e-18
	-3.820782980097364e-15
	4.055222264959092e-05
	2.401576389928136e-04
	1.247642336054839e-04
	2.897370221890406e-01

 129	1.290000000000001e+00
	-2.251947775052841e-16
	-9.320070959392751e-18
	-3.824669065093209e-15
	4.157196150822452e-05
	2.413852996710393e-04
	1.271718705189148e-04
	2.897371192552370e-01

 130	1.300000000000001e+00
	-2.230140023578789e-16
	-9.701841281739380e-18
	-3.828509236716501e-15
	4.261188563053267e-05
	2.425414361410378e-04
	1.295914252974155e-04
	2.897372168018870e-01

 131	1.310000000000001e+00
	-2.208397505333977e-16
	-1.010008057379384e-17
	-3.832304685535633e-15
	4.367207744915920e-05
	2.436249837753319e-04
	1.320221773665399e-04
	2.897373147999414e-01

 132	1.320000000000001e+00
	-2.186717693764809e-16
	-1.051558102284906e-17
	-3.836056498207062e-15
	4.475260428913964e-05
	2.446349372586293e-04
	1.344633958032251e-04
	2.897374132199316e-01

 133	1.330000000000001e+00
	-2.165098176007301e-16
	-1.094917646429542e-17
	-3.839765662752530e-15
	4.585351815359402e-05
	2.455703519207476e-04
	1.369143399356240e-04
	2.897375120319969e-01

 134	1.340000000000001e+00
	-2.143536644605447e-16
	-1.140174467539013e-17
	-3.843433073257198e-15
	4.697485553436861e-05
	2.464303449694415e-04
	1.393742599557613e-04
	2.897376112059062e-01

 135	1.350000000000001e+00
	-2.122030889989182e-16
	-1.187420979302621e-17
	-3.847059534029035e-15
	4.811663724696314e-05
	2.472140966218729e-04
	1.418423975440093e-04
	2.897377107110887e-01

 136	1.360000000000001e+00
	-2.100578793649130e-16
	-1.236754486107629e-17
	-3.850645763255991e-15
	4.927886828897679e-05
	2.479208511337305e-04
	1.443179865043614e-04
	2.897378105166533e-01

 137	1.370000000000001e+00
	-2.079178321951388e-16
	-1.288277451292741e-17
	-3.854192396193823e-15
	5.046153772122087e-05
	2.485499177252689e-04
	1.468002534094822e-04
	2.897379105914170e-01

 138	1.380000000000001e+00
	-2.057827520542043e-16
	-1.342097779484247e-17
	-3.857699987914313e-15
	5.166461857057243e-05
	2.491006714037751e-04
	1.492884182544913e-04
	2.897380109039364e-01

 139	1.390000000000001e+00
	-2.036524509295973e-16
	-1.398329113574185e-17
	-3.861169015640659e-15
	5.288806775358620e-05
	2.495725536822377e-04
	1.517816951184543e-04
	2.897381114225243e-01

 140	1.400000000000001e+00
	-2.015267477770142e-16
	-1.457091146891604e-17
	-3.864599880694015e-15
	5.413182601983973e-05
	2.499650731942013e-04
	1.542792928325349e-04
	2.897382121152829e-01

 141	1.410000000000001e+00
	-1.994054681125697e-16
	-1.518509951102524e-17
	-3.867992910072858e-15
	5.539581791395916e-05
	2.502778062050326e-04
	1.567804156537754e-04
	2.897383129501329e-01

 142	1.420000000000001e+00
	-1.972884436487436e-16
	-1.582718320351821e-17
	-3.871348357684542e-15
	5.667995175526118e-05
	2.505103970200336e-04
	1.592842639434693e-04
	2.897384138948348e-01

 143	1.430000000000001e+00
	-1.951755119713225e-16
	-1.649856132128819e-17
	-3.874666405246490e-15
	5.798411963395056e-05
	2.506625582900410e-04
	1.617900348491010e-04
	2.897385149170210e-01

 144	1.440000000000001e+00
	-1.930665162549353e-16
	-1.720070725297495e-17
	-3.877947162872627e-15
	5.930819742282820e-05
	2.507340712153416e-04
	1.642969229888281e-04
	2.897386159842222e-01

 145	1.450000000000001e+00
	-1.909613050150996e-16
	-1.793517295678883e-17
	-3.881190669359187e-15
	6.065204480349548e-05
	2.507247856489287e-04
	1.668041211374958e-04
	2.897387170638954e-01

 146	1.460000000000001e+00
	-1.888597318950093e-16
	-1.870359309508062e-17
	-3.884396892182560e-15
	6.201550530608882e-05
	2.506346201002807e-04
	1.693108209131845e-04
	2.897388181234488e-01

 147	1.470000000000001e+00
	-1.867616554855530e-16
	-1.950768935006150e-17
	-3.887565727220769e-15
	6.339840636162830e-05
	2.504635616410221e-04
	1.718162134633022e-04
	2.897389191302719e-01

 148	1.480000000000001e+00
	-1.846669391773250e-16
	-2.034927492210194e-17
	-3.890696998209123e-15
	6.480055936613526e-05
	2.502116657139576e-04
	1.743194901492415e-04
	2.897390200517670e-01

 149	1.490000000000001e+00
	-1.825754510435730e-16
	-2.123025921085890e-17
	-3.893790455939930e-15
	6.622175975575440e-05
	2.498790558471364e-04
	1.768198432286572e-04
	2.897391208553671e-01

 150	1.500000000000001e+00
	-1.804870637533107e-16
	-2.215265267808454e-17
	-3.896845777215459e-15
	6.766178709219395e-05
	2.494659232747040e-04
	1.793164665344094e-04
	2.897392215085690e-01

 151	1.510000000000001e+00
	-1.784016545139572e-16
	-2.311857188933070e-17
	-3.899862563563064e-15
	6.912040515790006e-05
	2.489725264664411e-04
	1.818085561492573e-04
	2.897393219789681e-01

 152	1.520000000000001e+00
	-1.763191050430267e-16
	-2.413024472984854e-17
	-3.902840339721289e-15
	7.059736206047878e-05
	2.483991905679897e-04
	1.842953110754010e-04
	2.897394222342675e-01

 153	1.530000000000001e+00
	-1.742393015686377e-16
	-2.519001578776128e-17
	-3.905778551905690e-15
	7.209239034598184e-05
	2.477463067538575e-04