Title: **.subckt gm_id_pmos
Date: Sat Jun 12 17:33:03  2021
Plotname: DC transfer characteristic
Flags: real
No. Variables: 8
No. Points: 181
Variables:
	0	v(v-sweep)	voltage
	1	@m.xm1.msky130_fd_pr__pfet_01v8_lvt[cgb]	capacitance
	2	@m.xm1.msky130_fd_pr__pfet_01v8_lvt[cgd]	capacitance
	3	@m.xm1.msky130_fd_pr__pfet_01v8_lvt[cgs]	capacitance
	4	@m.xm1.msky130_fd_pr__pfet_01v8_lvt[gds]	admittance
	5	@m.xm1.msky130_fd_pr__pfet_01v8_lvt[gm]	admittance
	6	i(@m.xm1.msky130_fd_pr__pfet_01v8_lvt[id])	current
	7	v(@m.xm1.msky130_fd_pr__pfet_01v8_lvt[vth])	voltage
Values:
 0	0.000000000000000e+00
	-2.648027086071396e-15
	-4.053283190015982e-21
	-5.978567851978388e-17
	2.575183844316554e-10
	8.580444027826376e-09
	3.662728112167336e-10
	3.816831461512467e-01

 1	1.000000000000000e-02
	-2.634274697081806e-15
	-4.406248137454577e-21
	-6.434249491232138e-17
	3.253772668123496e-10
	1.081327567392792e-08
	4.628188242558892e-10
	3.816831461542988e-01

 2	2.000000000000000e-02
	-2.620599336126716e-15
	-4.789730573171659e-21
	-6.929699512867654e-17
	4.108401559262242e-10
	1.361394341317719e-08
	5.844281879493083e-10
	3.816831461581415e-01

 3	3.000000000000000e-02
	-2.606987485497554e-15
	-5.206477417037431e-21
	-7.468934320993474e-17
	5.183598659918199e-10
	1.712157530061798e-08
	7.374506929722223e-10
	3.816831461629776e-01

 4	4.000000000000000e-02
	-2.593424749817762e-15
	-5.659503223505046e-21
	-8.056398645515525e-17
	6.534694382969386e-10
	2.150733165783148e-08
	9.297824962472159e-10
	3.816831461690566e-01

 5	5.000000000000000e-02
	-2.579895771295585e-15
	-6.152116971100007e-21
	-8.697003604425335e-17
	8.230259571032486e-10
	2.698100696643240e-08
	1.171218590072707e-09
	3.816831461766880e-01

 6	6.000000000000000e-02
	-2.566384141864444e-15
	-6.687951243685458e-21
	-9.396166929448594e-17
	1.035502348138669e-09
	3.379871448378121e-08
	1.473876626981404e-09
	3.816831461862528e-01

 7	7.000000000000001e-02
	-2.552872312297659e-15
	-7.270993967603189e-21
	-1.015985537879572e-16
	1.301333937468708e-09
	4.227173603860932e-08
	1.852703357163058e-09
	3.816831461982257e-01

 8	8.000000000000000e-02
	-2.539341498431535e-15
	-7.905622875982511e-21
	-1.099462934194249e-16
	1.633326490164206e-09
	5.277659329426941e-08
	2.326075638100447e-09
	3.816831462131859e-01

 9	9.000000000000000e-02
	-2.525771584697358e-15
	-8.596642878372373e-21
	-1.190768961419611e-16
	2.047131923566352e-09
	6.576635930958187e-08
	2.916508361245431e-09
	3.816831462318476e-01

 10	9.999999999999999e-02
	-2.512141025257681e-15
	-9.349326520056251e-21
	-1.290692627986885e-16
	2.561796729162609e-09
	8.178318059247799e-08
	3.651481594511148e-09
	3.816831462550754e-01

 11	1.100000000000000e-01
	-2.498426743175314e-15
	-1.016945772050399e-20
	-1.400096958758270e-16
	3.200386154387880e-09
	1.014719220257543e-07
	4.564398658408127e-09
	3.816831462839270e-01

 12	1.200000000000000e-01
	-2.484604028229509e-15
	-1.106337898378193e-20
	-1.519924262393528e-16
	3.990684206225262e-09
	1.255947846241130e-07
	5.695685666478616e-09
	3.816831463196814e-01

 13	1.300000000000000e-01
	-2.470646434247423e-15
	-1.203804227450239e-20
	-1.651201548561628e-16
	4.965965384698515e-09
	1.550466867178541e-07
	7.094041256857682e-09
	3.816831463638747e-01

 14	1.400000000000000e-01
	-2.456525677158646e-15
	-1.310106374995248e-20
	-1.795046050736076e-16
	6.165828642537902e-09
	1.908711536059004e-07
	8.817842903267176e-09
	3.816831464183564e-01

 15	1.500000000000000e-01
	-2.442211535424188e-15
	-1.426078253097560e-20
	-1.952670791552308e-16
	7.637077413341825e-09
	2.342764419617252e-07
	1.093671352238484e-08
	3.816831464853216e-01

 16	1.600000000000000e-01
	-2.427671755055890e-15
	-1.552632367923661e-20
	-2.125390103599390e-16
	9.434621829926337e-09
	2.866516463921454e-07
	1.353324942480703e-08
	3.816831465673853e-01

 17	1.700000000000000e-01
	-2.412871962144150e-15
	-1.690766552466652e-20
	-2.314624988278138e-16
	1.162237084852010e-08
	3.495826061099743e-07
	1.670490844025986e-08
	3.816831466676236e-01

 18	1.800000000000000e-01
	-2.397775586659862e-15
	-1.841571145170815e-20
	-2.521908158306777e-16
	1.427407351912964e-08
	4.248675507682048e-07
	2.056605579341844e-08
	3.816831467896534e-01

 19	1.900000000000000e-01
	-2.382343802295740e-15
	-2.006236620394813e-20
	-2.748888565184099e-16
	1.747406094621118e-08
	5.145325831486304e-07
	2.525016546918844e-08
	3.816831469376938e-01

 20	2.000000000000000e-01
	-2.366535488254923e-15
	-2.186061670089148e-20
	-2.997335161350963e-16
	2.131783459704421e-08
	6.208472609022077e-07
	3.091217661945131e-08
	3.816831471166399e-01

 21	2.100000000000000e-01
	-2.350307220161861e-15
	-2.382461727523197e-20
	-3.269139588377410e-16
	2.591244364379836e-08
	7.463406578772067e-07
	3.773100784199132e-08
	3.816831473321458e-01

 22	2.200000000000001e-01
	-2.333613298625420e-15
	-2.596977913117791e-20
	-3.566317418358459e-16
	3.137659498959922e-08
	8.938182892191955e-07
	4.591223611261659e-08
	3.816831475907113e-01

 23	2.300000000000001e-01
	-2.316405825369988e-15
	-2.831286369178205e-20
	-3.891007507798870e-16
	3.784044526839864e-08
	1.066380099349135e-06
	5.569095025431292e-08
	3.816831478997640e-01

 24	2.400000000000001e-01
	-2.298634838186132e-15
	-3.087207934396551e-20
	-4.245468954628002e-16
	4.544503468906180e-08
	1.267439276690185e-06
	6.733478886856689e-08
	3.816831482677628e-01

 25	2.500000000000001e-01
	-2.280248517130151e-15
	-3.366718090314945e-20
	-4.632075083877288e-16
	5.434133776931856e-08
	1.500740947412255e-06
	8.114716696225284e-08
	3.816831487042978e-01

 26	2.600000000000001e-01
	-2.261193475283677e-15
	-3.671957090560022e-20
	-5.053303831619066e-16
	6.468892478035109e-08
	1.770378843267872e-06
	9.747068141365515e-08
	3.816831492201958e-01

 27	2.700000000000001e-01
	-2.241415147803496e-15
	-4.005240159802825e-20
	-5.511723857142282e-16
	7.665424855524395e-08
	2.080806937464968e-06
	1.166906609243412e-07
	3.816831498276378e-01

 28	2.800000000000001e-01
	-2.220858292754628e-15
	-4.369067623530017e-20
	-6.009975698598661e-16
	9.040859234538121e-08
	2.436841969464353e-06
	1.392387905667667e-07
	3.816831505402627e-01

 29	2.900000000000001e-01
	-2.199467616114192e-15
	-4.766134802557471e-20
	-6.550747307265718e-16
	1.061257337795369e-07
	2.843651958348923e-06
	1.655966958291943e-07
	3.816831513732941e-01

 30	3.000000000000001e-01
	-2.177188531142447e-15
	-5.199341478844662e-20
	-7.136743360695921e-16
	1.239793961542229e-07
	3.306725474981172e-06
	1.962993199034106e-07
	3.816831523436395e-01

 31	3.100000000000001e-01
	-2.153968058838059e-15
	-5.671800712947002e-20
	-7.770647875827195e-16
	1.441405702771536e-07
	3.831816815293732e-06
	2.319378768685460e-07
	3.816831534699841e-01

 32	3.200000000000001e-01
	-2.129755871266648e-15
	-6.186846770133716e-20
	-8.455079828999874e-16
	1.667747975453153e-07
	4.424863422188306e-06
	2.731621201535656e-07
	3.816831547728614e-01

 33	3.300000000000001e-01
	-2.104505473090569e-15
	-6.748041893832548e-20
	-9.192541747490733e-16
	1.920395080406983e-07
	5.091873954901111e-06
	3.206816387188231e-07
	3.816831562746981e-01

 34	3.400000000000001e-01
	-2.078175508662260e-15
	-7.359181653937590e-20
	-9.985361569074134e-16
	2.200815066431642e-07
	5.838788174170217e-06
	3.752658907271322e-07
	3.816831579998133e-01

 35	3.500000000000001e-01
	-2.050731172752939e-15
	-8.024298596029278e-20
	-1.083562846852276e-15
	2.510346959874881e-07
	6.671313028471522e-06
	4.377427120179226e-07
	3.816831599743700e-01

 36	3.600000000000002e-01
	-2.022145692735646e-15
	-8.747663928040522e-20
	-1.174512381126002e-15
	2.850181178381379e-07
	7.594742601607585e-06
	5.089950970637431e-07
	3.816831622262770e-01

 37	3.700000000000002e-01
	-1.992401839389423e-15
	-9.533787005429948e-20
	-1.271524889383108e-15
	3.221343841716215e-07
	8.613772455316354e-06
	5.899561415920724e-07
	3.816831647850209e-01

 38	3.800000000000002e-01
	-1.961493413202121e-15
	-1.038741241596903e-19
	-1.374695163806497e-15
	3.624685558291886e-07
	9.732320911155438e-06
	6.816021523421628e-07
	3.816831676814589e-01

 39	3.900000000000002e-01
	-1.929426644051988e-15
	-1.131351452155280e-19
	-1.484065488145284e-15
	4.060875099752780e-07
	1.095337058181518e-05
	7.849440598603621e-07
	3.816831709475434e-01

 40	4.000000000000002e-01
	-1.896221435476640e-15
	-1.231728938658207e-19
	-1.599618930418663e-15
	4.530398180190751e-07
	1.227884275842191e-05
	9.010174010858351e-07
	3.816831746159987e-01

 41	4.100000000000002e-01
	-1.861912381434586e-15
	-1.340414410885062e-19
	-1.721273430420552e-15
	5.033561338758001e-07
	1.370951507685650e-05
	1.030871254801604e-06
	3.816831787199833e-01

 42	4.200000000000002e-01
	-1.826549484457204e-15
	-1.457968366649447e-19
	-1.848877022815393e-15
	5.570500697529729e-07
	1.524498944596100e-05
	1.175556600951468e-06
	3.816831832927104e-01

 43	4.300000000000002e-01
	-1.790198510056843e-15
	-1.584969549912180e-19
	-1.982204524900559e-15
	6.141195147572118e-07
	1.688371295279149e-05
	1.336114623779603e-06
	3.816831883670888e-01

 44	4.400000000000002e-01
	-1.752940923496327e-15
	-1.722013214728597e-19
	-2.120955982533474e-15
	6.745483324074273e-07
	1.862304992679348e-05
	1.513565483205550e-06
	3.816831939753577e-01

 45	4.500000000000002e-01
	-1.714873371348486e-15
	-1.869709237576120e-19
	-2.264757107773424e-15
	7.383083583206418e-07
	2.045939913831052e-05
	1.708898039123659e-06
	3.816832001487733e-01

 46	4.600000000000002e-01
	-1.676106690951604e-15
	-2.028680129603235e-19
	-2.413161859352969e-15
	8.053616101554953e-07
	2.238834674311304e-05
	1.923060935372097e-06
	3.816832069173133e-01

 47	4.700000000000003e-01
	-1.636764454639797e-15
	-2.199559007570355e-19
	-2.565657216537612e-15
	8.756626189291607e-07
	2.440484341684981e-05
	2.156955344300508e-06
	3.816832143094604e-01

 48	4.800000000000003e-01
	-1.596981080793435e-15
	-2.382987587170141e-19
	-2.721670084917494e-15
	9.491607939105501e-07
	2.650339329615093e-05
	2.411429552048462e-06
	3.816832223520246e-01

 49	4.900000000000003e-01
	-1.556899568327981e-15
	-2.579614264605843e-19
	-2.880576157577563e-15
	1.025802741620557e-06
	2.867824279288551e-05
	2.687275442072020e-06
	3.816832310700323e-01

 50	5.000000000000002e-01
	-1.516668933158467e-15
	-2.790092351555315e-19
	-3.041710446185732e-15
	1.105534471752906e-06
	3.092355884362707e-05
	2.985226821855230e-06
	3.816832404866763e-01

 51	5.100000000000002e-01
	-1.476441442543867e-15
	-3.015078524939038e-19
	-3.204379102948114e-15
	1.188303437543117e-06
	3.323358836419998e-05
	3.305959443963221e-06
	3.816832506233139e-01

 52	5.200000000000002e-01
	-1.436369754524109e-15
	-3.255231546450690e-19
	-3.367872084026092e-15
	1.274060373728525e-06
	3.560279323475488e-05
	3.650092502927016e-06
	3.816832614995123e-01

 53	5.300000000000002e-01
	-1.396604073975078e-15
	-3.511211298003018e-19
	-3.531476163678256e-15
	1.362760910416651e-06
	3.802595771017920e-05
	4.018191345664162e-06
	3.816832731331398e-01

 54	5.400000000000003e-01
	-1.357289433866764e-15
	-3.783678168657131e-19
	-3.694487799057599e-15
	1.454366954872553e-06
	4.049826747182059e-05
	4.410771113986634e-06
	3.816832855404781e-01

 55	5.500000000000003e-01
	-1.318563200553208e-15
	-4.073292816915137e-19
	-3.856225368149034e-15
	1.548847844764656e-06
	4.301536143871315e-05
	4.828301039814868e-06
	3.816832987363565e-01

 56	5.600000000000003e-01
	-1.280552886408011e-15
	-4.380716320181858e-19
	-4.016040354688599e-15
	1.646181285434253e-06
	4.557335885937045e-05
	5.271209132342452e-06
	3.816833127343010e-01

 57	5.700000000000003e-01
	-1.243374333374760e-15
	-4.706610711446987e-19
	-4.173327128497939e-15
	1.746354090230469e-06
	4.816886510432548e-05
	5.739887026507975e-06
	3.816833275466913e-01

 58	5.800000000000003e-01
	-1.207130308827771e-15
	-5.051639892432585e-19
	-4.327531060227009e-15
	1.849362747054906e-06
	5.079896002514369e-05
	6.234694798909716e-06
	3.816833431849063e-01

 59	5.900000000000003e-01
	-1.171909532392039e-15
	-5.416470903098598e-19
	-4.478154807965654e-15
	1.955213836303040e-06
	5.346117281986080e-05
	6.755965596595678e-06
	3.816833596594728e-01

 60	6.000000000000003e-01
	-1.137786130763941e-15
	-5.801775519867027e-19
	-4.624762711644017e-15
	2.063924325762075e-06
	5.615344714257351e-05
	7.304009962742731e-06
	3.816833769802085e-01

 61	6.100000000000003e-01
	-1.104819498516555e-15
	-6.208232149414252e-19
	-4.766983322599912e-15
	2.175521767129316e-06
	5.887409980888246e-05
	7.879119778803579e-06
	3.816833951563369e-01

 62	6.200000000000003e-01
	-1.073054527372605e-15
	-6.636527981446609e-19
	-4.904510174664930e-15
	2.290044417029233e-06
	6.162177596018963e-05
	8.481571773826599e-06
	3.816834141966029e-01

 63	6.300000000000003e-01
	-1.042522155048079e-15
	-7.087361362418100e-19
	-5.037100965953571e-15
	2.407541303063490e-06
	6.439540302349501e-05
	9.111630577664362e-06
	3.816834341093712e-01

 64	6.400000000000003e-01
	-1.013240177652121e-15
	-7.561444352497712e-19
	-5.164575365446830e-15
	2.528072252793900e-06
	6.719414528693283e-05
	9.769551315545466e-06
	3.816834549027037e-01

 65	6.500000000000004e-01
	-9.852142665517850e-16
	-8.059505429954300e-19
	-5.286811685383316e-15
	2.651707900843105e-06
	7.001736043652667e-05
	1.045558175726712e-05
	3.816834765844314e-01

 66	6.600000000000004e-01
	-9.584391310778861e-16
	-8.582292310207126e-19
	-5.403742670748241e-15
	2.778529686652929e-06
	7.286455898475681e-05
	1.116996404559518e-05
	3.816834991622078e-01

 67	6.700000000000004e-01
	-9.328997717918998e-16
	-9.130574850743404e-19
	-5.515350653123908e-15
	2.908629852964816e-06
	7.573536717427604e-05
	1.191293603596681e-05
	3.816835226435483e-01

 68	6.800000000000004e-01
	-9.085727745050032e-16
	-9.705148017633257e-19
	-5.621662300766540e-15
	3.042111452842792e-06
	7.862949366088703e-05
	1.268473228397401e-05
	3.816835470358676e-01

 69	6.900000000000004e-01
	-8.854276020945451e-16
	-1.030683489417787e-18
	-5.722743173140532e-15
	3.179088371075036e-06
	8.154670006417378e-05
	1.348558471901961e-05
	3.816835723464947e-01

 70	7.000000000000004e-01
	-8.634278487208876e-16
	-1.093648971707198e-18
	-5.818692259305614e-15
	3.319685364071276e-06
	8.448677531466360e-05
	1.431572304257712e-05
	3.816835985826876e-01

 71	7.100000000000004e-01
	-8.425324287332916e-16
	-1.159500093015034e-18
	-5.909636648227079e-15
	3.464038120911532e-06
	8.744951361457703e-05
	1.517537488818273e-05
	3.816836257516432e-01

 72	7.200000000000004e-01
	-8.226966799180353e-16
	-1.228329425018367e-18
	-5.995726447511356e-15
	3.612293346976193e-06
	9.043469575635733e-05
	1.606476577806215e-05
	3.816836538604862e-01

 73	7.300000000000004e-01
	-8.038733674630111e-16
	-1.300233574317673e-18
	-6.077130036991064e-15
	3.764608870574358e-06
	9.344207350111174e-05
	1.698411890850552e-05
	3.816836829162724e-01

 74	7.400000000000004e-01
	-7.860135808882855e-16
	-1.375313491316936e-18
	-6.154029716211356e-15
	3.921153772158589e-06
	9.647135670051314e-05
	1.793365479301465e-05
	3.816837129259708e-01

 75	7.500000000000004e-01
	-7.690675211214204e-16
	-1.453674780860605e-18
	-6.226617780952572e-15
	4.082108535043176e-06
	9.952220284441189e-05
	1.891359078906389e-05
	3.816837438964492e-01

 76	7.600000000000005e-01
	-7.529851788614439e-16
	-1.535428015394777e-18
	-6.295093043816364e-15
	4.247665216002857e-06
	1.025942087272435e-04
	1.992414053118379e-05
	3.816837758344607e-01

 77	7.700000000000005e-01
	-7.377169084186883e-16
	-1.620689051636562e-18
	-6.359657797648400e-15
	4.418027633697554e-06
	1.056869039452000e-04
	2.096551329009821e-05
	3.816838087466164e-01

 78	7.800000000000005e-01
	-7.232139034226390e-16
	-1.709579351912519e-18
	-6.420515207983994e-15
	4.593411572523301e-06
	1.087997459598741e-04
	2.203791327487724e-05
	3.816838426393739e-01

 79	7.900000000000005e-01
	-7.094285822633031e-16
	-1.802226311470288e-18
	-6.477867111450909e-15
	4.774044999215192e-06
	1.119321164903010e-04
	2.314153889256180e-05
	3.816838775190011e-01

 80	8.000000000000005e-01
	-6.963148919913937e-16
	-1.898763593179759e-18
	-6.531912190719800e-15
	4.960168289306008e-06
	1.150833190222320e-04
	2.427658197746149e-05
	3.816839133915594e-01

 81	8.100000000000005e-01
	-6.838285397654466e-16
	-1.999331471130569e-18
	-6.582844492702680e-15
	5.152034460366044e-06
	1.182525772498951e-04
	2.544322700035458e-05
	3.816839502628808e-01

 82	8.200000000000005e-01
	-6.719271609107900e-16
	-2.104077184703177e-18
	-6.630852254803765e-15
	5.349909408802791e-06
	1.214390342905701e-04
	2.664165026609731e-05
	3.816839881385382e-01

 83	8.300000000000005e-01
	-6.605704323449051e-16
	-2.213155304747493e-18
	-6.676117003697579e-15
	5.554072146876518e-06
	1.246417525355296e-04
	2.787201910666726e-05
	3.816840270238168e-01

 84	8.400000000000005e-01
	-6.497201396112689e-16
	-2.326728113551207e-18
	-6.718812891961338e-15
	5.764815036484513e-06
	1.278597140220237e-04
	2.913449107541289e-05
	3.816840669236955e-01

 85	8.500000000000005e-01
	-6.393402051205354e-16
	-2.444966000320583e-18
	-6.759106239588900e-15
	5.982444016178002e-06
	1.310918212298610e-04
	3.042921314722137e-05
	3.816841078428222e-01

 86	8.600000000000005e-01
	-6.293966844809715e-16
	-2.568047873937520e-18
	-6.797155249683602e-15
	6.207278817798465e-06
	1.343368982228128e-04
	3.175632092844034e-05
	3.816841497854799e-01

 87	8.700000000000006e-01
	-6.198577370539976e-16
	-2.696161594794397e-18
	-6.833109870240558e-15
	6.439653169052784e-06
	1.375936920695936e-04
	3.311593787966139e-05
	3.816841927555701e-01

 88	8.800000000000006e-01
	-6.106935761286988e-16
	-2.829504427552629e-18
	-6.867111776708076e-15
	6.679914978290223e-06
	1.408608744917248e-04
	3.450817455389101e-05
	3.816842367565881e-01

 89	8.900000000000006e-01
	-6.018764033954341e-16
	-2.968283516716455e-18
	-6.899294452826968e-15
	6.928426497695286e-06
	1.441370436962798e-04
	3.593312785215702e-05
	3.816842817915961e-01

 90	9.000000000000006e-01
	-5.933803317290752e-16
	-3.112716386967983e-18
	-6.929783349986827e-15
	7.185564461074016e-06
	1.474207263605835e-04
	3.739088029822876e-05
	3.816843278631984e-01

 91	9.100000000000006e-01
	-5.851812996771117e-16
	-3.263031470269124e-18
	-6.958696107940941e-15
	7.451720192385770e-06
	1.507103797435055e-04
	3.888149933383703e-05
	3.816843749735311e-01

 92	9.200000000000006e-01
	-5.772569804917948e-16
	-3.419468661807274e-18
	-6.986142822141678e-15
	7.727299681159848e-06
	1.540043939042730e-04
	4.040503663556127e-05
	3.816844231242231e-01

 93	9.300000000000006e-01
	-5.695866880505666e-16
	-3.582279906939044e-18
	-7.012226345169661e-15
	8.012723620940441e-06
	1.573010940148628e-04
	4.196152745438283e-05
	3.816844723163907e-01

 94	9.400000000000006e-01
	-5.621512815736872e-16
	-3.751729821375884e-18
	-7.037042611722431e-15
	8.308427406923976e-06
	1.605987427561800e-04
	4.355098997879075e-05
	3.816845225506068e-01

 95	9.500000000000006e-01
	-5.549330706700079e-16
	-3.928096346956823e-18
	-7.060680978399907e-15
	8.614861088993884e-06
	1.638955427915202e-04
	4.517342472224002e-05
	3.816845738268864e-01

 96	9.600000000000006e-01
	-5.479157219167265e-16
	-4.111671445462922e-18
	-7.083224571082229e-15
	8.932489276421897e-06
	1.671896393133791e-04
	4.682881393571633e-05
	3.816846261446705e-01

 97	9.700000000000006e-01
	-5.410841679024833e-16
	-4.302761833053426e-18
	-7.104750634052617e-15
	9.261790990592110e-06
	1.704791226615918e-04
	4.851712104612595e-05
	3.816846795028022e-01

 98	9.800000000000006e-01
	-5.344245194302031e-16
	-4.501689758038115e-18
	-7.125330876187804e-15
	9.603259462220617e-06
	1.737620310122085e-04
	5.023829012122425e-05
	3.816847338995122e-01

 99	9.900000000000007e-01
	-5.279239813818210e-16
	-4.708793824850253e-18
	-7.145031810539369e-15
	9.957401869686183e-06
	1.770363531374426e-04
	5.199224536178547e-05
	3.816847893324046e-01

 100	1.000000000000001e+00
	-5.215707725865567e-16
	-4.924429867245631e-18
	-7.163915084477451e-15
	1.032473901526467e-05
	1.803000312376351e-04
	5.377889062173420e-05
	3.816848457984401e-01

 101	1.010000000000001e+00
	-5.153540499034947e-16
	-5.148971873930243e-18
	-7.182037798280999e-15
	1.070580493626689e-05
	1.835509638464258e-04
	5.559810895696063e-05
	3.816849032939240e-01

 102	1.020000000000001e+00
	-5.092638366234647e-16
	-5.382812970010024e-18
	-7.199452810652741e-15
	1.110114644832223e-05
	1.867870088103468e-04
	5.744976220355981e-05
	3.816849618144889e-01

 103	1.030000000000001e+00
	-5.032909552110418e-16
	-5.626366457860544e-18
	-7.216209030127534e-15
	1.151132261832751e-05
	1.900059863438428e-04
	5.933369058624245e-05
	3.816850213550825e-01

 104	1.040000000000001e+00
	-4.974269643415564e-16
	-5.880066921237304e-18
	-7.232351691743662e-15
	1.193690416489365e-05
	1.932056821603631e-04
	6.124971235767672e-05
	3.816850819099626e-01

 105	1.050000000000001e+00
	-4.916641001372459e-16
	-6.144371396684374e-18
	-7.247922618671325e-15
	1.237847278446998e-05
	1.963838506796519e-04
	6.319762346952117e-05
	3.816851434726787e-01

 106	1.060000000000001e+00
	-4.859952214686836e-16
	-6.419760616554904e-18
	-7.262960468751625e-15
	1.283662040171039e-05
	1.995382183107664e-04
	6.517719727590949e-05
	3.816852060360684e-01

 107	1.070000000000001e+00
	-4.804137591600520e-16
	-6.706740328227953e-18
	-7.277500966103594e-15
	1.331194834306170e-05
	2.026664868096510e-04
	6.718818427013934e-05
	3.816852695922450e-01

 108	1.080000000000001e+00
	-4.749136689178459e-16
	-7.005842694399090e-18
	-7.291577118114816e-15
	1.380506643300444e-05
	2.057663367093665e-04
	6.923031185530124e-05
	3.816853341325922e-01

 109	1.090000000000001e+00
	-4.694893877904106e-16
	-7.317627779631734e-18
	-7.305219418250603e-15
	1.431659201285559e-05
	2.088354308202768e-04
	7.130328414955991e-05
	3.816853996477588e-01

 110	1.100000000000001e+00
	-4.641357939593138e-16
	-7.642685128687754e-18
	-7.318456035204126e-15
	1.484714888254977e-05
	2.118714177967225e-04
	7.340678182677398e-05
	3.816854661276522e-01

 111	1.110000000000001e+00
	-4.588481696612295e-16
	-7.981635442505516e-18
	-7.331312988971564e-15
	1.539736616634513e-05
	2.148719357658949e-04
	7.554046199309357e-05
	3.816855335614344e-01

 112	1.120000000000001e+00
	-4.536221670404322e-16
	-8.335132358070443e-18
	-7.343814314476011e-15
	1.596787710395150e-05
	2.178346160138533e-04
	7.770395810013776e-05
	3.816856019375220e-01

 113	1.130000000000001e+00
	-4.484537767357611e-16
	-8.703864338815960e-18
	-7.355982213387082e-15
	1.655931776914244e-05
	2.207570867228603e-04
	7.989687989529032e-05
	3.816856712435787e-01

 114	1.140000000000001e+00
	-4.433392990118546e-16
	-9.088556682613503e-18
	-7.367837194792023e-15
	1.717232571848948e-05
	2.236369767534931e-04
	8.211881340959771e-05
	3.816857414665219e-01

 115	1.150000000000001e+00
	-4.382753172516549e-16
	-9.489973654854979e-18
	-7.379398205372566e-15
	1.780753857343594e-05
	2.264719194643004e-04
	8.436932098367890e-05
	3.816858125925174e-01

 116	1.160000000000001e+00
	-4.332586736355031e-16
	-9.908920754597469e-18
	-7.390682749731476e-15
	1.846559253950716e-05
	2.292595565611595e-04
	8.664794133198560e-05
	3.816858846069903e-01

 117	1.170000000000001e+00
	-4.282864468409911e-16
	-1.034624712223457e-17
	-7.401707001496381e-15
	1.914712086702527e-05
	2.319975419679142e-04
	8.895418964566932e-05
	3.816859574946141e-01

 118	1.180000000000001e+00
	-4.233559316070388e-16
	-1.080284809767951e-17
	-7.412485905806880e-15
	1.985275225825124e-05
	2.346835457093650e-04
	9.128755773421668e-05
	3.816860312393284e-01

 119	1.190000000000001e+00
	-4.184646200149884e-16
	-1.127966793858847e-17
	-7.423033273766419e-15
	2.058310922641806e-05
	2.373152577972756e-04
	9.364751420593938e-05
	3.816861058243393e-01

 120	1.200000000000001e+00
	-4.136101843489318e-16
	-1.177770270872632e-17
	-7.433361869413290e-15
	2.133880641262361e-05
	2.398903921096819e-04
	9.603350468729530e-05
	3.816861812321233e-01

 121	1.210000000000001e+00
	-4.087904614066100e-16
	-1.229800334717361e-17
	-7.443483489736448e-15
	2.212044886702979e-05
	2.424066902535211e-04
	9.844495208092268e-05
	3.816862574444422e-01

 122	1.220000000000001e+00
	-4.040034381412012e-16
	-1.284167892969671e-17
	-7.453409038232845e-15
	2.292863030125040e-05
	2.448619254004002e-04
	1.008812568621740e-04
	3.816863344423502e-01

 123	1.230000000000001e+00
	-3.992472385228422e-16
	-1.340990013425081e-17
	-7.463148592473339e-15
	2.376393131920006e-05
	2.472539060851981e-04
	1.033417974138266e-04
	3.816864122061981e-01

 124	1.240000000000001e+00
	-3.945201115170118e-16
	-1.400390292325549e-17
	-7.472711466115148e-15
	2.462691763401430e-05
	2.495804799571661e-04
	1.058259303985475e-04
	3.816864907156530e-01

 125	1.250000000000001e+00
	-3.898204200846586e-16
	-1.462499245597497e-17
	-7.482106265770102e-15
	2.551813827893495e-05
	2.518395374732122e-04
	1.083329911685830e-04
	3.816865699497123e-01

 126	1.260000000000001e+00
	-3.851466311162541e-16
	-1.527454724504447e-17
	-7.491340943110470e-15
	2.643812382027842e-05
	2.540290155231980e-04
	1.108622942120500e-04
	3.816866498867057e-01

 127	1.270000000000001e+00
	-3.804973062190854e-16
	-1.595402357190827e-17
	-7.500422842566781e-15
	2.738738458075913e-05
	2.561469009772375e-04
	1.134131336350920e-04
	3.816867305043276e-01

 128	1.280000000000001e+00
	-3.758710932832936e-16
	-1.666496017667449e-17
	-7.509358744947112e-15
	2.836640888153783e-05
	2.581912341452675e-04
	1.159847836790750e-04
	3.816868117796376e-01

 129	1.290000000000001e+00
	-3.712667187585349e-16
	-1.740898323862612e-17
	-7.518154907282281e-15
	2.937566131138342e-05
	2.601601121394778e-04
	1.185764992718978e-04
	3.816868936890893e-01

 130	1.300000000000001e+00
	-3.666829805785602e-16
	-1.818781166437507e-17
	-7.526817099178576e-15
	3.041558103129513e-05
	2.620516921305698e-04
	1.211875166123993e-04
	3.816869762085411e-01

 131	1.310000000000001e+00
	-3.621187416763845e-16
	-1.900326270136597e-17
	-7.535350635937547e-15
	3.148658012281444e-05
	2.638641944892647e-04
	1.238170537867555e-04
	3.816870593132821e-01

 132	1.320000000000001e+00
	-3.575729240375616e-16
	-1.985725789515634e-17
	-7.543760408681918e-15
	3.258904198807737e-05
	2.655959058049652e-04
	1.264643114156851e-04
	3.816871429780481e-01

 133	1.330000000000001e+00
	-3.530445032435601e-16
	-2.075182940956723e-17
	-7.552050911707180e-15
	3.372331980940448e-05
	2.672451817740050e-04
	1.291284733311871e-04
	3.816872271770440e-01

 134	1.340000000000001e+00
	-3.485325034614906e-16
	-2.168912672943831e-17
	-7.560226267260343e-15
	3.488973507591852e-05
	2.688104499504956e-04
	1.318087072814787e-04
	3.816873118839685e-01

 135	1.350000000000001e+00
	-3.440359928401950e-16
	-2.267142376628347e-17
	-7.568290247930387e-15
	3.608857618430479e-05
	2.702902123533693e-04
	1.345041656627224e-04
	3.816873970720293e-01

 136	1.360000000000001e+00
	-3.395540792764203e-16
	-2.370112638763196e-17
	-7.576246296819043e-15
	3.732009712040513e-05
	2.716830479238450e-04
	1.372139862760769e-04
	3.816874827139810e-01

 137	1.370000000000001e+00
	-3.350859065178871e-16
	-2.478078039121796e-17
	-7.584097545646119e-15
	3.858451622785901e-05
	2.729876148281628e-04
	1.399372931085492e-04
	3.816875687821347e-01

 138	1.380000000000001e+00
	-3.306306505733712e-16
	-2.591307994542463e-17
	-7.591846830929494e-15
	3.988201506948491e-05
	2.742026526010972e-04
	1.426731971360788e-04
	3.816876552483948e-01

 139	1.390000000000001e+00
	-3.261875164025122e-16
	-2.710087651747111e-17
	-7.599496708367616e-15
	4.121273738653575e-05
	2.753269841263736e-04
	1.454207971472371e-04
	3.816877420842785e-01

 140	1.400000000000001e+00
	-3.217557348608015e-16
	-2.834718831070692e-17
	-7.607049465540556e-15
	4.257678816037561e-05
	2.763595174507876e-04
	1.481791805859044e-04
	3.816878292609447e-01

 141	1.410000000000001e+00
	-3.173345598775553e-16
	-2.965521023200882e-17
	-7.614507133034820e-15
	4.397423278050473e-05
	2.772992474294206e-04
	1.509474244112349e-04
	3.816879167492214e-01

 142	1.420000000000001e+00
	-3.129232658470021e-16
	-3.102832440962178e-17
	-7.621871494087291e-15
	4.540509632223565e-05
	2.781452571999928e-04
	1.537245959732220e-04
	3.816880045196331e-01

 143	1.430000000000001e+00
	-3.085211452145729e-16
	-3.247011128077153e-17
	-7.629144092834720e-15
	4.686936293667276e-05
	2.788967194849715e-04
	1.565097539021416e-04
	3.816880925424257e-01

 144	1.440000000000001e+00
	-3.041275062426391e-16
	-3.398436126696346e-17
	-7.636326241246686e-15
	4.836697535500837e-05
	2.795528977206286e-04
	1.593019490101479e-04
	3.816881807876049e-01

 145	1.450000000000001e+00
	-2.997416709414977e-16
	-3.557508705298201e-17
	-7.643419024813010e-15
	4.989783450849932e-05
	2.801131470128014e-04
	1.621002252032905e-04
	3.816882692249512e-01

 146	1.460000000000001e+00
	-2.953629731534442e-16
	-3.724653648314275e-17
	-7.650423307049290e-15
	5.146179926485744e-05
	2.805769149196101e-04
	1.649036204022206e-04
	3.816883578240598e-01

 147	1.470000000000001e+00
	-2.909907567791041e-16
	-3.900320608524418e-17
	-7.657339732879077e-15
	5.305868628116471e-05
	2.809437420618851e-04
	1.677111674698553e-04
	3.816884465543631e-01

 148	1.480000000000001e+00
	-2.866243741369727e-16
	-4.084985522879665e-17
	-7.664168730945484e-15
	5.468826997282619e-05
	2.812132625625150e-04
	1.705218951442916e-04
	3.816885353851674e-01

 149	1.490000000000001e+00
	-2.822631844483971e-16
	-4.279152091939859e-17
	-7.670910514901178e-15
	5.635028259749959e-05
	2.813852043163356e-04
	1.733348289752579e-04
	3.816886242856740e-01

 150	1.500000000000001e+00
	-2.779065524418523e-16
	-4.483353322540819e-17
	-7.677565083721790e-15
	5.804441445239125e-05
	2.814593890925833e-04
	1.761489922624241e-04
	3.816887132250182e-01

 151	1.510000000000001e+00
	-2.735538470714824e-16
	-4.698153132626679e-17
	-7.684132221085502e-15
	5.977031418280125e-05
	2.814357324722840e-04
	1.789634069939052e-04
	3.816888021722869e-01

 152	1.520000000000001e+00
	-2.692044403465148e-16
	-4.924148016372862e-17
	-7.690611493859174e-15
	6.152758919931681e-05
	2.813142436232807e-04
	1.817770947833219e-04
	3.816888910965602e-01

 153	1.530000000000001e+00
	-2.648577062691042e-16
	-5.161968766778266e-17
	-7.697002249731016e-15
	6.331580620061889e-05
	2.810950249158914e-04